LIG_GMX.gro created by acpype (v: 2023.10.27) on Sun May 10 09:05:37 2026
 55
    1  UNL   CL    1  -0.576   0.042   0.218
    1  UNL    F    2  -0.653  -0.044  -0.056
    1  UNL    O    3  -0.166   0.392  -0.128
    1  UNL   O1    4   0.353   0.094   0.087
    1  UNL   O2    5   0.524  -0.100  -0.025
    1  UNL    N    6   0.081   0.319   0.007
    1  UNL   N1    7  -0.114  -0.113   0.060
    1  UNL   N2    8   0.157  -0.393  -0.082
    1  UNL   N3    9  -0.067  -0.327  -0.033
    1  UNL    C   10   0.189   0.344   0.104
    1  UNL   C1   11  -0.051   0.315   0.074
    1  UNL   C2   12   0.076   0.421  -0.100
    1  UNL   C3   13   0.330   0.329   0.045
    1  UNL   C4   14  -0.164   0.290  -0.027
    1  UNL   C5   15  -0.040   0.394  -0.197
    1  UNL   C6   16   0.356   0.192  -0.017
    1  UNL   C7   17   0.305  -0.025   0.041
    1  UNL   C8   18   0.115  -0.175   0.008
    1  UNL   C9   19   0.169  -0.050   0.050
    1  UNL  C10   20   0.390  -0.124  -0.008
    1  UNL  C11   21   0.201  -0.274  -0.042
    1  UNL  C12   22   0.337  -0.246  -0.050
    1  UNL  C13   23  -0.022  -0.207   0.010
    1  UNL  C14   24  -0.252  -0.103   0.032
    1  UNL  C15   25   0.025  -0.414  -0.075
    1  UNL  C16   26   0.594  -0.127   0.096
    1  UNL  C17   27  -0.338  -0.046   0.127
    1  UNL  C18   28  -0.304  -0.137  -0.093
    1  UNL  C19   29  -0.473  -0.027   0.098
    1  UNL  C20   30  -0.439  -0.117  -0.123
    1  UNL  C21   31  -0.523  -0.063  -0.026
    1  UNL    H   32   0.178   0.444   0.148
    1  UNL   H1   33   0.180   0.273   0.187
    1  UNL   H2   34  -0.052   0.235   0.149
    1  UNL   H3   35  -0.069   0.410   0.126
    1  UNL   H4   36   0.064   0.521  -0.055
    1  UNL   H5   37   0.169   0.421  -0.158
    1  UNL   H6   38   0.349   0.408  -0.029
    1  UNL   H7   39   0.402   0.345   0.127
    1  UNL   H8   40  -0.153   0.192  -0.075
    1  UNL   H9   41  -0.261   0.292   0.024
    1  UNL  H10   42  -0.045   0.474  -0.272
    1  UNL  H11   43  -0.026   0.300  -0.250
    1  UNL  H12   44   0.283   0.172  -0.097
    1  UNL  H13   45   0.456   0.191  -0.062
    1  UNL  H14   46   0.104   0.028   0.087
    1  UNL  H15   47   0.404  -0.322  -0.091
    1  UNL  H16   48  -0.091  -0.093   0.158
    1  UNL  H17   49  -0.011  -0.511  -0.107
    1  UNL  H18   50  -0.300  -0.016   0.225
    1  UNL  H19   51  -0.239  -0.177  -0.171
    1  UNL  H20   52   0.699  -0.101   0.079
    1  UNL  H21   53   0.557  -0.065   0.178
    1  UNL  H22   54   0.589  -0.233   0.122
    1  UNL  H23   55  -0.479  -0.143  -0.220
   27.04200    20.64400     9.92800
