gefitinib_minimized.pdb
    55
  -5.7630000   0.4150000   2.1810000  -6.5280000  -0.4440000  -0.5650000
  -1.6560000   3.9170000  -1.2810000   3.5260000   0.9390000   0.8720000
   5.2350000  -1.0050000  -0.2540000   0.8120000   3.1890000   0.0690000
  -1.1400000  -1.1250000   0.6050000   1.5710000  -3.9310000  -0.8200000
  -0.6680000  -3.2670000  -0.3260000   1.8880000   3.4400000   1.0410000
  -0.5070000   3.1500000   0.7420000   0.7620000   4.2130000  -0.9970000
   3.3030000   3.2940000   0.4530000  -1.6370000   2.9010000  -0.2710000
  -0.3980000   3.9440000  -1.9680000   3.5570000   1.9220000  -0.1710000
   3.0490000  -0.2530000   0.4050000   1.1540000  -1.7460000   0.0820000
   1.6850000  -0.5030000   0.5010000   3.8970000  -1.2390000  -0.0830000
   2.0120000  -2.7360000  -0.4160000   3.3730000  -2.4620000  -0.5020000
  -0.2150000  -2.0740000   0.0980000  -2.5170000  -1.0290000   0.3240000
   0.2500000  -4.1400000  -0.7500000   5.9410000  -1.2650000   0.9580000
  -3.3780000  -0.4580000   1.2730000  -3.0410000  -1.3670000  -0.9330000
  -4.7330000  -0.2710000   0.9840000  -4.3940000  -1.1720000  -1.2280000
  -5.2330000  -0.6280000  -0.2640000   1.7850000   4.4400000   1.4810000
   1.7960000   2.7270000   1.8690000  -0.5240000   2.3480000   1.4890000
  -0.6910000   4.1010000   1.2590000   0.6360000   5.2090000  -0.5520000
   1.6900000   4.2130000  -1.5760000   3.4920000   4.0770000  -0.2890000
   4.0180000   3.4520000   1.2690000  -1.5350000   1.9190000  -0.7470000
  -2.6050000   2.9250000   0.2400000  -0.4450000   4.7420000  -2.7170000
  -0.2560000   2.9960000  -2.5020000   2.8310000   1.7200000  -0.9680000
   4.5580000   1.9090000  -0.6170000   1.0360000   0.2840000   0.8740000
   4.0410000  -3.2190000  -0.9070000  -0.9120000  -0.9300000   1.5750000
  -0.1090000  -5.1130000  -1.0690000  -2.9990000  -0.1620000   2.2470000
  -2.3920000  -1.7730000  -1.7060000   6.9930000  -1.0110000   0.7920000
   5.5720000  -0.6490000   1.7850000   5.8850000  -2.3270000   1.2190000
  -4.7900000  -1.4340000  -2.2040000
