; LIG_GMX_OPLS.itp created by acpype (v: 2023.10.27) on Sun May 10 09:05:37 2026

; For OPLS atomtypes manual fine tuning
; AC_at:OPLS_at:OPLScode: Possible_Alternatives (see ffoplsaa.atp and ffoplsaanb.itp)
; cl:x:opls_x: []
; f:x:opls_x: []
; os:x:opls_x: []
; n3:x:opls_x: []
; nu:x:opls_x: []
; nb:x:opls_x: []
; c3:CT:opls_135: ['136', '137', '149', '157', '158', '206', '209', '210', '223B', '224B', '245', '246', '274', '283', '284', '285', '292', '292B', '293B', '296', '307', '308', '505']
; c6:x:opls_x: []
; ca:CA:opls_145: ['166', '501', '502']
; h1:HC:opls_140: []
; hc:HC:opls_140: []
; ha:HA:opls_146: []
; hn:H:opls_240: ['241', '290', '301', '304', '310', '504', '513']
; h5:HA:opls_146: []

[ moleculetype ]
;name            nrexcl
 LIG              3

[ atoms ]
;   nr  type  resi  res  atom  cgnr     charge      mass       ; qtot   bond_type
     1 opls_x     1   UNL    CL    1    -0.067400      0.00000 ; qtot -0.067  x   
     2 opls_x     1   UNL     F    2    -0.124900      0.00000 ; qtot -0.192  x   
     3 opls_x     1   UNL     O    3    -0.408600      0.00000 ; qtot -0.601  x   
     4 opls_x     1   UNL    O1    4    -0.345900      0.00000 ; qtot -0.947  x   
     5 opls_x     1   UNL    O2    5    -0.334900      0.00000 ; qtot -1.282  x   
     6 opls_x     1   UNL     N    6    -0.732600      0.00000 ; qtot -2.014  x   
     7 opls_x     1   UNL    N1    7    -0.726300      0.00000 ; qtot -2.741  x   
     8 opls_x     1   UNL    N2    8    -0.707000      0.00000 ; qtot -3.448  x   
     9 opls_x     1   UNL    N3    9    -0.771999      0.00000 ; qtot -4.220  x   
    10 opls_135     1   UNL     C   10     0.163800     12.01100 ; qtot -4.056  CT  
    11 opls_x     1   UNL    C1   11     0.125800      0.00000 ; qtot -3.930  x   
    12 opls_x     1   UNL    C2   12     0.125800      0.00000 ; qtot -3.804  x   
    13 opls_135     1   UNL    C3   13    -0.087400     12.01100 ; qtot -3.892  CT  
    14 opls_x     1   UNL    C4   14     0.125400      0.00000 ; qtot -3.766  x   
    15 opls_x     1   UNL    C5   15     0.125400      0.00000 ; qtot -3.641  x   
    16 opls_135     1   UNL    C6   16     0.134400     12.01100 ; qtot -3.506  CT  
    17 opls_145     1   UNL    C7   17     0.079100     12.01100 ; qtot -3.427  CA  
    18 opls_145     1   UNL    C8   18    -0.280600     12.01100 ; qtot -3.708  CA  
    19 opls_145     1   UNL    C9   19    -0.133000     12.01100 ; qtot -3.841  CA  
    20 opls_145     1   UNL   C10   20     0.121100     12.01100 ; qtot -3.720  CA  
    21 opls_145     1   UNL   C11   21     0.435600     12.01100 ; qtot -3.284  CA  
    22 opls_145     1   UNL   C12   22    -0.186300     12.01100 ; qtot -3.470  CA  
    23 opls_145     1   UNL   C13   23     0.696200     12.01100 ; qtot -2.774  CA  
    24 opls_145     1   UNL   C14   24     0.134600     12.01100 ; qtot -2.640  CA  
    25 opls_145     1   UNL   C15   25     0.667900     12.01100 ; qtot -1.972  CA  
    26 opls_135     1   UNL   C16   26     0.115700     12.01100 ; qtot -1.856  CT  
    27 opls_145     1   UNL   C17   27    -0.150000     12.01100 ; qtot -2.006  CA  
    28 opls_145     1   UNL   C18   28    -0.086000     12.01100 ; qtot -2.092  CA  
    29 opls_145     1   UNL   C19   29    -0.003600     12.01100 ; qtot -2.096  CA  
    30 opls_145     1   UNL   C20   30    -0.145000     12.01100 ; qtot -2.241  CA  
    31 opls_145     1   UNL   C21   31     0.121900     12.01100 ; qtot -2.119  CA  
    32 opls_140     1   UNL     H   32     0.042700      1.00800 ; qtot -2.076  HC  
    33 opls_140     1   UNL    H1   33     0.042700      1.00800 ; qtot -2.033  HC  
    34 opls_140     1   UNL    H2   34     0.042700      1.00800 ; qtot -1.991  HC  
    35 opls_140     1   UNL    H3   35     0.042700      1.00800 ; qtot -1.948  HC  
    36 opls_140     1   UNL    H4   36     0.042700      1.00800 ; qtot -1.905  HC  
    37 opls_140     1   UNL    H5   37     0.042700      1.00800 ; qtot -1.863  HC  
    38 opls_140     1   UNL    H6   38     0.057200      1.00800 ; qtot -1.805  HC  
    39 opls_140     1   UNL    H7   39     0.057200      1.00800 ; qtot -1.748  HC  
    40 opls_140     1   UNL    H8   40     0.053200      1.00800 ; qtot -1.695  HC  
    41 opls_140     1   UNL    H9   41     0.053200      1.00800 ; qtot -1.642  HC  
    42 opls_140     1   UNL   H10   42     0.053200      1.00800 ; qtot -1.589  HC  
    43 opls_140     1   UNL   H11   43     0.053200      1.00800 ; qtot -1.535  HC  
    44 opls_140     1   UNL   H12   44     0.051700      1.00800 ; qtot -1.484  HC  
    45 opls_140     1   UNL   H13   45     0.051700      1.00800 ; qtot -1.432  HC  
    46 opls_146     1   UNL   H14   46     0.156000      1.00800 ; qtot -1.276  HA  
    47 opls_146     1   UNL   H15   47     0.172000      1.00800 ; qtot -1.104  HA  
    48 opls_240     1   UNL   H16   48     0.436800      1.00800 ; qtot -0.667  H   
    49 opls_146     1   UNL   H17   49     0.055100      1.00800 ; qtot -0.612  HA  
    50 opls_146     1   UNL   H18   50     0.147000      1.00800 ; qtot -0.465  HA  
    51 opls_146     1   UNL   H19   51     0.164000      1.00800 ; qtot -0.301  HA  
    52 opls_140     1   UNL   H20   52     0.048033      1.00800 ; qtot -0.253  HC  
    53 opls_140     1   UNL   H21   53     0.048033      1.00800 ; qtot -0.205  HC  
    54 opls_140     1   UNL   H22   54     0.048033      1.00800 ; qtot -0.157  HC  
    55 opls_146     1   UNL   H23   55     0.157000      1.00800 ; qtot -0.000  HA  

[ bonds ]
;   ai     aj funct   r             k
     1     29   1 ;    1.7572e-01    1.5730e+05 ;     CL - C19         x - CA    
     2     31   1 ;    1.3502e-01    2.8070e+05 ;      F - C21         x - CA    
     3     14   1 ;    1.4300e-01    2.3412e+05 ;      O - C4          x - x     
     3     15   1 ;    1.4300e-01    2.3412e+05 ;      O - C5          x - x     
     4     16   1 ;    1.4273e-01    2.3620e+05 ;     O1 - C6          x - CT    
     4     17   1 ;    1.3688e-01    2.8731e+05 ;     O1 - C7          x - CA    
     5     20   1 ;    1.3688e-01    2.8731e+05 ;     O2 - C10         x - CA    
     5     26   1 ;    1.4273e-01    2.3620e+05 ;     O2 - C16         x - CT    
     6     10   1 ;    1.4626e-01    2.1410e+05 ;      N - C           x - CT    
     6     11   1 ;    1.4657e-01    2.1199e+05 ;      N - C1          x - x     
     6     12   1 ;    1.4657e-01    2.1199e+05 ;      N - C2          x - x     
     7     23   1 ;    1.3944e-01    2.6771e+05 ;     N1 - C13         x - CA    
     7     24   1 ;    1.3944e-01    2.6771e+05 ;     N1 - C14         x - CA    
     7     48   1 ;    1.0137e-01    3.9538e+05 ;     N1 - H16         x - H     
     8     21   1 ;    1.3392e-01    3.2341e+05 ;     N2 - C11         x - CA    
     8     25   1 ;    1.3392e-01    3.2341e+05 ;     N2 - C15         x - CA    
     9     23   1 ;    1.3392e-01    3.2341e+05 ;     N3 - C13         x - CA    
     9     25   1 ;    1.3392e-01    3.2341e+05 ;     N3 - C15         x - CA    
    10     13   1 ;    1.5354e-01    1.9154e+05 ;      C - C3         CT - CT    
    10     32   1 ;    1.0969e-01    2.8804e+05 ;      C - H          CT - HC    
    10     33   1 ;    1.0969e-01    2.8804e+05 ;      C - H1         CT - HC    
    11     14   1 ;    1.5384e-01    1.8979e+05 ;     C1 - C4          x - x     
    11     34   1 ;    1.0984e-01    2.8620e+05 ;     C1 - H2          x - HC    
    11     35   1 ;    1.0984e-01    2.8620e+05 ;     C1 - H3          x - HC    
    12     15   1 ;    1.5384e-01    1.8979e+05 ;     C2 - C5          x - x     
    12     36   1 ;    1.0984e-01    2.8620e+05 ;     C2 - H4          x - HC    
    12     37   1 ;    1.0984e-01    2.8620e+05 ;     C2 - H5          x - HC    
    13     16   1 ;    1.5354e-01    1.9154e+05 ;     C3 - C6         CT - CT    
    13     38   1 ;    1.0962e-01    2.8891e+05 ;     C3 - H6         CT - HC    
    13     39   1 ;    1.0962e-01    2.8891e+05 ;     C3 - H7         CT - HC    
    14     40   1 ;    1.0984e-01    2.8620e+05 ;     C4 - H8          x - HC    
    14     41   1 ;    1.0984e-01    2.8620e+05 ;     C4 - H9          x - HC    
    15     42   1 ;    1.0984e-01    2.8620e+05 ;     C5 - H10         x - HC    
    15     43   1 ;    1.0984e-01    2.8620e+05 ;     C5 - H11         x - HC    
    16     44   1 ;    1.0969e-01    2.8804e+05 ;     C6 - H12        CT - HC    
    16     45   1 ;    1.0969e-01    2.8804e+05 ;     C6 - H13        CT - HC    
    17     19   1 ;    1.3986e-01    2.9644e+05 ;     C7 - C9         CA - CA    
    17     20   1 ;    1.3986e-01    2.9644e+05 ;     C7 - C10        CA - CA    
    18     19   1 ;    1.3986e-01    2.9644e+05 ;     C8 - C9         CA - CA    
    18     21   1 ;    1.3986e-01    2.9644e+05 ;     C8 - C11        CA - CA    
    18     23   1 ;    1.3986e-01    2.9644e+05 ;     C8 - C13        CA - CA    
    19     46   1 ;    1.0860e-01    3.0183e+05 ;     C9 - H14        CA - HA    
    20     22   1 ;    1.3986e-01    2.9644e+05 ;    C10 - C12        CA - CA    
    21     22   1 ;    1.3986e-01    2.9644e+05 ;    C11 - C12        CA - CA    
    22     47   1 ;    1.0860e-01    3.0183e+05 ;    C12 - H15        CA - HA    
    24     27   1 ;    1.3986e-01    2.9644e+05 ;    C14 - C17        CA - CA    
    24     28   1 ;    1.3986e-01    2.9644e+05 ;    C14 - C18        CA - CA    
    25     49   1 ;    1.0880e-01    2.9923e+05 ;    C15 - H17        CA - HA    
    26     52   1 ;    1.0969e-01    2.8804e+05 ;    C16 - H20        CT - HC    
    26     53   1 ;    1.0969e-01    2.8804e+05 ;    C16 - H21        CT - HC    
    26     54   1 ;    1.0969e-01    2.8804e+05 ;    C16 - H22        CT - HC    
    27     29   1 ;    1.3986e-01    2.9644e+05 ;    C17 - C19        CA - CA    
    27     50   1 ;    1.0860e-01    3.0183e+05 ;    C17 - H18        CA - HA    
    28     30   1 ;    1.3986e-01    2.9644e+05 ;    C18 - C20        CA - CA    
    28     51   1 ;    1.0860e-01    3.0183e+05 ;    C18 - H19        CA - HA    
    29     31   1 ;    1.3986e-01    2.9644e+05 ;    C19 - C21        CA - CA    
    30     31   1 ;    1.3986e-01    2.9644e+05 ;    C20 - C21        CA - CA    
    30     55   1 ;    1.0860e-01    3.0183e+05 ;    C20 - H23        CA - HA    

[ pairs ]
;   ai     aj    funct
     1      2      1 ;     CL - F     
     1     24      1 ;     CL - C14   
     1     30      1 ;     CL - C20   
     1     50      1 ;     CL - H18   
     2     27      1 ;      F - C17   
     2     28      1 ;      F - C18   
     2     55      1 ;      F - H23   
     3      6      1 ;      O - N     
     3     34      1 ;      O - H2    
     3     35      1 ;      O - H3    
     3     36      1 ;      O - H4    
     3     37      1 ;      O - H5    
     4      5      1 ;     O1 - O2    
     4     10      1 ;     O1 - C     
     4     18      1 ;     O1 - C8    
     4     22      1 ;     O1 - C12   
     4     38      1 ;     O1 - H6    
     4     39      1 ;     O1 - H7    
     4     46      1 ;     O1 - H14   
     5     19      1 ;     O2 - C9    
     5     21      1 ;     O2 - C11   
     5     47      1 ;     O2 - H15   
     6     16      1 ;      N - C6    
     6     38      1 ;      N - H6    
     6     39      1 ;      N - H7    
     6     40      1 ;      N - H8    
     6     41      1 ;      N - H9    
     6     42      1 ;      N - H10   
     6     43      1 ;      N - H11   
     7     19      1 ;     N1 - C9    
     7     21      1 ;     N1 - C11   
     7     25      1 ;     N1 - C15   
     7     29      1 ;     N1 - C19   
     7     30      1 ;     N1 - C20   
     7     50      1 ;     N1 - H18   
     7     51      1 ;     N1 - H19   
     8     19      1 ;     N2 - C9    
     8     20      1 ;     N2 - C10   
     8     23      1 ;     N2 - C13   
     8     47      1 ;     N2 - H15   
     9     19      1 ;     N3 - C9    
     9     21      1 ;     N3 - C11   
     9     24      1 ;     N3 - C14   
     9     48      1 ;     N3 - H16   
    10     14      1 ;      C - C4    
    10     15      1 ;      C - C5    
    10     34      1 ;      C - H2    
    10     35      1 ;      C - H3    
    10     36      1 ;      C - H4    
    10     37      1 ;      C - H5    
    10     44      1 ;      C - H12   
    10     45      1 ;      C - H13   
    11     13      1 ;     C1 - C3    
    11     15      1 ;     C1 - C5    
    11     32      1 ;     C1 - H     
    11     33      1 ;     C1 - H1    
    11     36      1 ;     C1 - H4    
    11     37      1 ;     C1 - H5    
    12     13      1 ;     C2 - C3    
    12     14      1 ;     C2 - C4    
    12     32      1 ;     C2 - H     
    12     33      1 ;     C2 - H1    
    12     34      1 ;     C2 - H2    
    12     35      1 ;     C2 - H3    
    13     17      1 ;     C3 - C7    
    14     42      1 ;     C4 - H10   
    14     43      1 ;     C4 - H11   
    15     40      1 ;     C5 - H8    
    15     41      1 ;     C5 - H9    
    16     19      1 ;     C6 - C9    
    16     20      1 ;     C6 - C10   
    16     32      1 ;     C6 - H     
    16     33      1 ;     C6 - H1    
    17     21      1 ;     C7 - C11   
    17     23      1 ;     C7 - C13   
    17     26      1 ;     C7 - C16   
    17     44      1 ;     C7 - H12   
    17     45      1 ;     C7 - H13   
    17     47      1 ;     C7 - H15   
    18     20      1 ;     C8 - C10   
    18     24      1 ;     C8 - C14   
    18     25      1 ;     C8 - C15   
    18     47      1 ;     C8 - H15   
    18     48      1 ;     C8 - H16   
    19     22      1 ;     C9 - C12   
    20     46      1 ;    C10 - H14   
    20     52      1 ;    C10 - H20   
    20     53      1 ;    C10 - H21   
    20     54      1 ;    C10 - H22   
    21     46      1 ;    C11 - H14   
    21     49      1 ;    C11 - H17   
    22     23      1 ;    C12 - C13   
    22     25      1 ;    C12 - C15   
    22     26      1 ;    C12 - C16   
    23     27      1 ;    C13 - C17   
    23     28      1 ;    C13 - C18   
    23     46      1 ;    C13 - H14   
    23     49      1 ;    C13 - H17   
    24     31      1 ;    C14 - C21   
    24     55      1 ;    C14 - H23   
    27     30      1 ;    C17 - C20   
    27     48      1 ;    C17 - H16   
    27     51      1 ;    C17 - H19   
    28     29      1 ;    C18 - C19   
    28     48      1 ;    C18 - H16   
    28     50      1 ;    C18 - H18   
    29     55      1 ;    C19 - H23   
    31     50      1 ;    C21 - H18   
    31     51      1 ;    C21 - H19   
    32     38      1 ;      H - H6    
    32     39      1 ;      H - H7    
    33     38      1 ;     H1 - H6    
    33     39      1 ;     H1 - H7    
    34     40      1 ;     H2 - H8    
    34     41      1 ;     H2 - H9    
    35     40      1 ;     H3 - H8    
    35     41      1 ;     H3 - H9    
    36     42      1 ;     H4 - H10   
    36     43      1 ;     H4 - H11   
    37     42      1 ;     H5 - H10   
    37     43      1 ;     H5 - H11   
    38     44      1 ;     H6 - H12   
    38     45      1 ;     H6 - H13   
    39     44      1 ;     H7 - H12   
    39     45      1 ;     H7 - H13   
    51     55      1 ;    H19 - H23   

[ angles ]
;   ai     aj     ak    funct   theta         cth
     1     29     27      1 ;    1.1938e+02    5.3605e+02 ;     CL - C19  - C17       x -   CA - CA  
     1     29     31      1 ;    1.1938e+02    5.3605e+02 ;     CL - C19  - C21       x -   CA - CA  
     2     31     29      1 ;    1.1896e+02    6.7404e+02 ;      F - C21  - C19       x -   CA - CA  
     2     31     30      1 ;    1.1896e+02    6.7404e+02 ;      F - C21  - C20       x -   CA - CA  
     3     14     11      1 ;    1.1009e+02    6.3948e+02 ;      O - C4   - C1        x -    x - x   
     3     14     40      1 ;    1.0808e+02    4.7430e+02 ;      O - C4   - H8        x -    x - HC  
     3     14     41      1 ;    1.0808e+02    4.7430e+02 ;      O - C4   - H9        x -    x - HC  
     3     15     12      1 ;    1.1009e+02    6.3948e+02 ;      O - C5   - C2        x -    x - x   
     3     15     42      1 ;    1.0808e+02    4.7430e+02 ;      O - C5   - H10       x -    x - HC  
     3     15     43      1 ;    1.0808e+02    4.7430e+02 ;      O - C5   - H11       x -    x - HC  
     4     16     13      1 ;    1.0762e+02    6.4802e+02 ;     O1 - C6   - C3        x -   CT - CT  
     4     16     44      1 ;    1.1034e+02    4.7028e+02 ;     O1 - C6   - H12       x -   CT - HC  
     4     16     45      1 ;    1.1034e+02    4.7028e+02 ;     O1 - C6   - H13       x -   CT - HC  
     4     17     19      1 ;    1.1911e+02    6.6107e+02 ;     O1 - C7   - C9        x -   CA - CA  
     4     17     20      1 ;    1.1911e+02    6.6107e+02 ;     O1 - C7   - C10       x -   CA - CA  
     5     20     17      1 ;    1.1911e+02    6.6107e+02 ;     O2 - C10  - C7        x -   CA - CA  
     5     20     22      1 ;    1.1911e+02    6.6107e+02 ;     O2 - C10  - C12       x -   CA - CA  
     5     26     52      1 ;    1.1034e+02    4.7028e+02 ;     O2 - C16  - H20       x -   CT - HC  
     5     26     53      1 ;    1.1034e+02    4.7028e+02 ;     O2 - C16  - H21       x -   CT - HC  
     5     26     54      1 ;    1.1034e+02    4.7028e+02 ;     O2 - C16  - H22       x -   CT - HC  
     6     10     13      1 ;    1.1308e+02    5.4308e+02 ;      N - C    - C3        x -   CT - CT  
     6     10     32      1 ;    1.1009e+02    4.0033e+02 ;      N - C    - H         x -   CT - HC  
     6     10     33      1 ;    1.1009e+02    4.0033e+02 ;      N - C    - H1        x -   CT - HC  
     6     11     14      1 ;    1.1084e+02    5.4743e+02 ;      N - C1   - C4        x -    x - x   
     6     11     34      1 ;    1.0963e+02    4.0041e+02 ;      N - C1   - H2        x -    x - HC  
     6     11     35      1 ;    1.0963e+02    4.0041e+02 ;      N - C1   - H3        x -    x - HC  
     6     12     15      1 ;    1.1084e+02    5.4743e+02 ;      N - C2   - C5        x -    x - x   
     6     12     36      1 ;    1.0963e+02    4.0041e+02 ;      N - C2   - H4        x -    x - HC  
     6     12     37      1 ;    1.0963e+02    4.0041e+02 ;      N - C2   - H5        x -    x - HC  
     7     23      9      1 ;    1.1717e+02    6.2132e+02 ;     N1 - C13  - N3        x -   CA - x   
     7     23     18      1 ;    1.2074e+02    5.6476e+02 ;     N1 - C13  - C8        x -   CA - CA  
     7     24     27      1 ;    1.2074e+02    5.6476e+02 ;     N1 - C14  - C17       x -   CA - CA  
     7     24     28      1 ;    1.2074e+02    5.6476e+02 ;     N1 - C14  - C18       x -   CA - CA  
     8     21     18      1 ;    1.2294e+02    5.7045e+02 ;     N2 - C11  - C8        x -   CA - CA  
     8     21     22      1 ;    1.2294e+02    5.7045e+02 ;     N2 - C11  - C12       x -   CA - CA  
     8     25      9      1 ;    1.2730e+02    6.0886e+02 ;     N2 - C15  - N3        x -   CA - x   
     8     25     49      1 ;    1.1579e+02    4.1974e+02 ;     N2 - C15  - H17       x -   CA - HA  
     9     23     18      1 ;    1.2294e+02    5.7045e+02 ;     N3 - C13  - C8        x -   CA - CA  
     9     25     49      1 ;    1.1579e+02    4.1974e+02 ;     N3 - C15  - H17       x -   CA - HA  
    10      6     11      1 ;    1.1238e+02    6.5003e+02 ;      C - N    - C1       CT -    x - x   
    10      6     12      1 ;    1.1238e+02    6.5003e+02 ;      C - N    - C2       CT -    x - x   
    10     13     16      1 ;    1.1263e+02    5.0099e+02 ;      C - C3   - C6       CT -   CT - CT  
    10     13     38      1 ;    1.0968e+02    3.6208e+02 ;      C - C3   - H6       CT -   CT - HC  
    10     13     39      1 ;    1.0968e+02    3.6208e+02 ;      C - C3   - H7       CT -   CT - HC  
    11      6     12      1 ;    1.1070e+02    6.5429e+02 ;     C1 - N    - C2        x -    x - x   
    11     14     40      1 ;    1.0918e+02    3.6217e+02 ;     C1 - C4   - H8        x -    x - HC  
    11     14     41      1 ;    1.0918e+02    3.6217e+02 ;     C1 - C4   - H9        x -    x - HC  
    12     15     42      1 ;    1.0918e+02    3.6217e+02 ;     C2 - C5   - H10       x -    x - HC  
    12     15     43      1 ;    1.0918e+02    3.6217e+02 ;     C2 - C5   - H11       x -    x - HC  
    13     10     32      1 ;    1.0959e+02    3.6217e+02 ;     C3 - C    - H        CT -   CT - HC  
    13     10     33      1 ;    1.0959e+02    3.6217e+02 ;     C3 - C    - H1       CT -   CT - HC  
    13     16     44      1 ;    1.0959e+02    3.6217e+02 ;     C3 - C6   - H12      CT -   CT - HC  
    13     16     45      1 ;    1.0959e+02    3.6217e+02 ;     C3 - C6   - H13      CT -   CT - HC  
    14      3     15      1 ;    1.1330e+02    7.3873e+02 ;     C4 - O    - C5        x -    x - x   
    14     11     34      1 ;    1.0918e+02    3.6217e+02 ;     C4 - C1   - H2        x -    x - HC  
    14     11     35      1 ;    1.0918e+02    3.6217e+02 ;     C4 - C1   - H3        x -    x - HC  
    15     12     36      1 ;    1.0918e+02    3.6217e+02 ;     C5 - C2   - H4        x -    x - HC  
    15     12     37      1 ;    1.0918e+02    3.6217e+02 ;     C5 - C2   - H5        x -    x - HC  
    16      4     17      1 ;    1.1839e+02    7.3856e+02 ;     C6 - O1   - C7       CT -    x - CA  
    16     13     38      1 ;    1.0968e+02    3.6208e+02 ;     C6 - C3   - H6       CT -   CT - HC  
    16     13     39      1 ;    1.0968e+02    3.6208e+02 ;     C6 - C3   - H7       CT -   CT - HC  
    17     19     18      1 ;    1.2002e+02    5.3279e+02 ;     C7 - C9   - C8       CA -   CA - CA  
    17     19     46      1 ;    1.1988e+02    3.7572e+02 ;     C7 - C9   - H14      CA -   CA - HA  
    17     20     22      1 ;    1.2002e+02    5.3279e+02 ;     C7 - C10  - C12      CA -   CA - CA  
    18     19     46      1 ;    1.1988e+02    3.7572e+02 ;     C8 - C9   - H14      CA -   CA - HA  
    18     21     22      1 ;    1.2002e+02    5.3279e+02 ;     C8 - C11  - C12      CA -   CA - CA  
    19     17     20      1 ;    1.2002e+02    5.3279e+02 ;     C9 - C7   - C10      CA -   CA - CA  
    19     18     21      1 ;    1.2002e+02    5.3279e+02 ;     C9 - C8   - C11      CA -   CA - CA  
    19     18     23      1 ;    1.2002e+02    5.3279e+02 ;     C9 - C8   - C13      CA -   CA - CA  
    20      5     26      1 ;    1.1839e+02    7.3856e+02 ;    C10 - O2   - C16      CA -    x - CT  
    20     22     21      1 ;    1.2002e+02    5.3279e+02 ;    C10 - C12  - C11      CA -   CA - CA  
    20     22     47      1 ;    1.1988e+02    3.7572e+02 ;    C10 - C12  - H15      CA -   CA - HA  
    21      8     25      1 ;    1.1724e+02    6.9580e+02 ;    C11 - N2   - C15      CA -    x - CA  
    21     18     23      1 ;    1.2002e+02    5.3279e+02 ;    C11 - C8   - C13      CA -   CA - CA  
    21     22     47      1 ;    1.1988e+02    3.7572e+02 ;    C11 - C12  - H15      CA -   CA - HA  
    23      7     24      1 ;    1.3028e+02    6.3396e+02 ;    C13 - N1   - C14      CA -    x - CA  
    23      7     48      1 ;    1.1473e+02    4.8083e+02 ;    C13 - N1   - H16      CA -    x - H   
    23      9     25      1 ;    1.1724e+02    6.9580e+02 ;    C13 - N3   - C15      CA -    x - CA  
    24      7     48      1 ;    1.1473e+02    4.8083e+02 ;    C14 - N1   - H16      CA -    x - H   
    24     27     29      1 ;    1.2002e+02    5.3279e+02 ;    C14 - C17  - C19      CA -   CA - CA  
    24     27     50      1 ;    1.1988e+02    3.7572e+02 ;    C14 - C17  - H18      CA -   CA - HA  
    24     28     30      1 ;    1.2002e+02    5.3279e+02 ;    C14 - C18  - C20      CA -   CA - CA  
    24     28     51      1 ;    1.1988e+02    3.7572e+02 ;    C14 - C18  - H19      CA -   CA - HA  
    27     24     28      1 ;    1.2002e+02    5.3279e+02 ;    C17 - C14  - C18      CA -   CA - CA  
    27     29     31      1 ;    1.2002e+02    5.3279e+02 ;    C17 - C19  - C21      CA -   CA - CA  
    28     30     31      1 ;    1.2002e+02    5.3279e+02 ;    C18 - C20  - C21      CA -   CA - CA  
    28     30     55      1 ;    1.1988e+02    3.7572e+02 ;    C18 - C20  - H23      CA -   CA - HA  
    29     27     50      1 ;    1.1988e+02    3.7572e+02 ;    C19 - C17  - H18      CA -   CA - HA  
    29     31     30      1 ;    1.2002e+02    5.3279e+02 ;    C19 - C21  - C20      CA -   CA - CA  
    30     28     51      1 ;    1.1988e+02    3.7572e+02 ;    C20 - C18  - H19      CA -   CA - HA  
    31     30     55      1 ;    1.1988e+02    3.7572e+02 ;    C21 - C20  - H23      CA -   CA - HA  
    32     10     33      1 ;    1.0855e+02    2.9824e+02 ;      H - C    - H1       HC -   CT - HC  
    34     11     35      1 ;    1.0750e+02    2.9932e+02 ;     H2 - C1   - H3       HC -    x - HC  
    36     12     37      1 ;    1.0750e+02    2.9932e+02 ;     H4 - C2   - H5       HC -    x - HC  
    38     13     39      1 ;    1.0773e+02    2.9957e+02 ;     H6 - C3   - H7       HC -   CT - HC  
    40     14     41      1 ;    1.0750e+02    2.9932e+02 ;     H8 - C4   - H9       HC -    x - HC  
    42     15     43      1 ;    1.0750e+02    2.9932e+02 ;    H10 - C5   - H11      HC -    x - HC  
    44     16     45      1 ;    1.0855e+02    2.9824e+02 ;    H12 - C6   - H13      HC -   CT - HC  
    52     26     53      1 ;    1.0855e+02    2.9824e+02 ;    H20 - C16  - H21      HC -   CT - HC  
    52     26     54      1 ;    1.0855e+02    2.9824e+02 ;    H20 - C16  - H22      HC -   CT - HC  
    53     26     54      1 ;    1.0855e+02    2.9824e+02 ;    H21 - C16  - H22      HC -   CT - HC  

[ dihedrals ] ; propers
; for gromacs 4.5 or higher, using funct 9
;    i      j      k      l   func   phase     kd      pn
     1     29     27     24      9 ;   180.00  15.16700   2 ;     CL-   C19-   C17-   C14
     1     29     27     50      9 ;   180.00  15.16700   2 ;     CL-   C19-   C17-   H18
     1     29     31      2      9 ;   180.00  15.16700   2 ;     CL-   C19-   C21-     F
     1     29     31     30      9 ;   180.00  15.16700   2 ;     CL-   C19-   C21-   C20
     2     31     29     27      9 ;   180.00  15.16700   2 ;      F-   C21-   C19-   C17
     2     31     30     28      9 ;   180.00  15.16700   2 ;      F-   C21-   C20-   C18
     2     31     30     55      9 ;   180.00  15.16700   2 ;      F-   C21-   C20-   H23
     3     14     11      6      9 ;     0.00   0.65084   3 ;      O-    C4-    C1-     N
     3     14     11     34      9 ;     0.00   0.00000   0 ;      O-    C4-    C1-    H2
     3     14     11     34      9 ;     0.00   1.04600   1 ;      O-    C4-    C1-    H2
     3     14     11     35      9 ;     0.00   0.00000   0 ;      O-    C4-    C1-    H3
     3     14     11     35      9 ;     0.00   1.04600   1 ;      O-    C4-    C1-    H3
     3     15     12      6      9 ;     0.00   0.65084   3 ;      O-    C5-    C2-     N
     3     15     12     36      9 ;     0.00   0.00000   0 ;      O-    C5-    C2-    H4
     3     15     12     36      9 ;     0.00   1.04600   1 ;      O-    C5-    C2-    H4
     3     15     12     37      9 ;     0.00   0.00000   0 ;      O-    C5-    C2-    H5
     3     15     12     37      9 ;     0.00   1.04600   1 ;      O-    C5-    C2-    H5
     4     16     13     10      9 ;     0.00   0.65084   3 ;     O1-    C6-    C3-     C
     4     16     13     38      9 ;     0.00   0.00000   0 ;     O1-    C6-    C3-    H6
     4     16     13     38      9 ;     0.00   1.04600   1 ;     O1-    C6-    C3-    H6
     4     16     13     39      9 ;     0.00   0.00000   0 ;     O1-    C6-    C3-    H7
     4     16     13     39      9 ;     0.00   1.04600   1 ;     O1-    C6-    C3-    H7
     4     17     19     18      9 ;   180.00  15.16700   2 ;     O1-    C7-    C9-    C8
     4     17     19     46      9 ;   180.00  15.16700   2 ;     O1-    C7-    C9-   H14
     4     17     20      5      9 ;   180.00  15.16700   2 ;     O1-    C7-   C10-    O2
     4     17     20     22      9 ;   180.00  15.16700   2 ;     O1-    C7-   C10-   C12
     5     20     17     19      9 ;   180.00  15.16700   2 ;     O2-   C10-    C7-    C9
     5     20     22     21      9 ;   180.00  15.16700   2 ;     O2-   C10-   C12-   C11
     5     20     22     47      9 ;   180.00  15.16700   2 ;     O2-   C10-   C12-   H15
     6     10     13     16      9 ;     0.00   0.87864   3 ;      N-     C-    C3-    C6
     6     10     13     38      9 ;     0.00   0.41840   3 ;      N-     C-    C3-    H6
     6     10     13     39      9 ;     0.00   0.41840   3 ;      N-     C-    C3-    H7
     6     11     14     40      9 ;     0.00   0.65084   3 ;      N-    C1-    C4-    H8
     6     11     14     41      9 ;     0.00   0.65084   3 ;      N-    C1-    C4-    H9
     6     12     15     42      9 ;     0.00   0.65084   3 ;      N-    C2-    C5-   H10
     6     12     15     43      9 ;     0.00   0.65084   3 ;      N-    C2-    C5-   H11
     7     23      9     25      9 ;   180.00  20.08320   2 ;     N1-   C13-    N3-   C15
     7     23     18     19      9 ;   180.00  15.16700   2 ;     N1-   C13-    C8-    C9
     7     23     18     21      9 ;   180.00  15.16700   2 ;     N1-   C13-    C8-   C11
     7     24     27     29      9 ;   180.00  15.16700   2 ;     N1-   C14-   C17-   C19
     7     24     27     50      9 ;   180.00  15.16700   2 ;     N1-   C14-   C17-   H18
     7     24     28     30      9 ;   180.00  15.16700   2 ;     N1-   C14-   C18-   C20
     7     24     28     51      9 ;   180.00  15.16700   2 ;     N1-   C14-   C18-   H19
     8     21     18     19      9 ;   180.00  15.16700   2 ;     N2-   C11-    C8-    C9
     8     21     18     23      9 ;   180.00  15.16700   2 ;     N2-   C11-    C8-   C13
     8     21     22     20      9 ;   180.00  15.16700   2 ;     N2-   C11-   C12-   C10
     8     21     22     47      9 ;   180.00  15.16700   2 ;     N2-   C11-   C12-   H15
     8     25      9     23      9 ;   180.00  20.08320   2 ;     N2-   C15-    N3-   C13
     9     23      7     24      9 ;   180.00   4.39320   2 ;     N3-   C13-    N1-   C14
     9     23      7     48      9 ;   180.00   4.39320   2 ;     N3-   C13-    N1-   H16
     9     23     18     19      9 ;   180.00  15.16700   2 ;     N3-   C13-    C8-    C9
     9     23     18     21      9 ;   180.00  15.16700   2 ;     N3-   C13-    C8-   C11
     9     25      8     21      9 ;   180.00  20.08320   2 ;     N3-   C15-    N2-   C11
    10      6     11     14      9 ;     0.00   3.05432   3 ;      C-     N-    C1-    C4
    10      6     11     34      9 ;     0.00   0.94140   3 ;      C-     N-    C1-    H2
    10      6     11     35      9 ;     0.00   0.94140   3 ;      C-     N-    C1-    H3
    10      6     12     15      9 ;     0.00   3.05432   3 ;      C-     N-    C2-    C5
    10      6     12     36      9 ;     0.00   0.94140   3 ;      C-     N-    C2-    H4
    10      6     12     37      9 ;     0.00   0.94140   3 ;      C-     N-    C2-    H5
    10     13     16     44      9 ;     0.00   0.65084   3 ;      C-    C3-    C6-   H12
    10     13     16     45      9 ;     0.00   0.65084   3 ;      C-    C3-    C6-   H13
    11      6     10     13      9 ;     0.00   3.05432   3 ;     C1-     N-     C-    C3
    11      6     10     32      9 ;     0.00   0.94140   3 ;     C1-     N-     C-     H
    11      6     10     33      9 ;     0.00   0.94140   3 ;     C1-     N-     C-    H1
    11      6     12     15      9 ;     0.00   3.05432   3 ;     C1-     N-    C2-    C5
    11      6     12     36      9 ;     0.00   0.94140   3 ;     C1-     N-    C2-    H4
    11      6     12     37      9 ;     0.00   0.94140   3 ;     C1-     N-    C2-    H5
    11     14      3     15      9 ;     0.00   4.85344   3 ;     C1-    C4-     O-    C5
    11     14      3     15      9 ;     0.00   5.77392   2 ;     C1-    C4-     O-    C5
    11     14      3     15      9 ;   180.00   1.46440   1 ;     C1-    C4-     O-    C5
    12      6     10     13      9 ;     0.00   3.05432   3 ;     C2-     N-     C-    C3
    12      6     10     32      9 ;     0.00   0.94140   3 ;     C2-     N-     C-     H
    12      6     10     33      9 ;     0.00   0.94140   3 ;     C2-     N-     C-    H1
    12      6     11     14      9 ;     0.00   3.05432   3 ;     C2-     N-    C1-    C4
    12      6     11     34      9 ;     0.00   0.94140   3 ;     C2-     N-    C1-    H2
    12      6     11     35      9 ;     0.00   0.94140   3 ;     C2-     N-    C1-    H3
    12     15      3     14      9 ;     0.00   4.85344   3 ;     C2-    C5-     O-    C4
    12     15      3     14      9 ;     0.00   5.77392   2 ;     C2-    C5-     O-    C4
    12     15      3     14      9 ;   180.00   1.46440   1 ;     C2-    C5-     O-    C4
    13     16      4     17      9 ;     0.00   1.60387   3 ;     C3-    C6-    O1-    C7
    14      3     15     42      9 ;     0.00   1.41001   3 ;     C4-     O-    C5-   H10
    14      3     15     43      9 ;     0.00   1.41001   3 ;     C4-     O-    C5-   H11
    15      3     14     40      9 ;     0.00   1.41001   3 ;     C5-     O-    C4-    H8
    15      3     14     41      9 ;     0.00   1.41001   3 ;     C5-     O-    C4-    H9
    16      4     17     19      9 ;   180.00   6.94544   2 ;     C6-    O1-    C7-    C9
    16      4     17     20      9 ;   180.00   6.94544   2 ;     C6-    O1-    C7-   C10
    16     13     10     32      9 ;     0.00   0.65084   3 ;     C6-    C3-     C-     H
    16     13     10     33      9 ;     0.00   0.65084   3 ;     C6-    C3-     C-    H1
    17      4     16     44      9 ;     0.00   1.60387   3 ;     C7-    O1-    C6-   H12
    17      4     16     45      9 ;     0.00   1.60387   3 ;     C7-    O1-    C6-   H13
    17     19     18     21      9 ;   180.00  15.16700   2 ;     C7-    C9-    C8-   C11
    17     19     18     23      9 ;   180.00  15.16700   2 ;     C7-    C9-    C8-   C13
    17     20      5     26      9 ;   180.00   6.94544   2 ;     C7-   C10-    O2-   C16
    17     20     22     21      9 ;   180.00  15.16700   2 ;     C7-   C10-   C12-   C11
    17     20     22     47      9 ;   180.00  15.16700   2 ;     C7-   C10-   C12-   H15
    18     19     17     20      9 ;   180.00  15.16700   2 ;     C8-    C9-    C7-   C10
    18     21      8     25      9 ;   180.00  20.08320   2 ;     C8-   C11-    N2-   C15
    18     21     22     20      9 ;   180.00  15.16700   2 ;     C8-   C11-   C12-   C10
    18     21     22     47      9 ;   180.00  15.16700   2 ;     C8-   C11-   C12-   H15
    18     23      7     24      9 ;   180.00   3.34720   2 ;     C8-   C13-    N1-   C14
    18     23      7     48      9 ;   180.00   4.39320   2 ;     C8-   C13-    N1-   H16
    18     23      9     25      9 ;   180.00  20.08320   2 ;     C8-   C13-    N3-   C15
    19     17     20     22      9 ;   180.00  15.16700   2 ;     C9-    C7-   C10-   C12
    19     18     21     22      9 ;   180.00  15.16700   2 ;     C9-    C8-   C11-   C12
    20      5     26     52      9 ;     0.00   1.60387   3 ;    C10-    O2-   C16-   H20
    20      5     26     53      9 ;     0.00   1.60387   3 ;    C10-    O2-   C16-   H21
    20      5     26     54      9 ;     0.00   1.60387   3 ;    C10-    O2-   C16-   H22
    20     17     19     46      9 ;   180.00  15.16700   2 ;    C10-    C7-    C9-   H14
    21      8     25     49      9 ;   180.00  20.08320   2 ;    C11-    N2-   C15-   H17
    21     18     19     46      9 ;   180.00  15.16700   2 ;    C11-    C8-    C9-   H14
    22     20      5     26      9 ;   180.00   6.94544   2 ;    C12-   C10-    O2-   C16
    22     21      8     25      9 ;   180.00  20.08320   2 ;    C12-   C11-    N2-   C15
    22     21     18     23      9 ;   180.00  15.16700   2 ;    C12-   C11-    C8-   C13
    23      7     24     27      9 ;   180.00   3.34720   2 ;    C13-    N1-   C14-   C17
    23      7     24     28      9 ;   180.00   3.34720   2 ;    C13-    N1-   C14-   C18
    23      9     25     49      9 ;   180.00  20.08320   2 ;    C13-    N3-   C15-   H17
    23     18     19     46      9 ;   180.00  15.16700   2 ;    C13-    C8-    C9-   H14
    24     27     29     31      9 ;   180.00  15.16700   2 ;    C14-   C17-   C19-   C21
    24     28     30     31      9 ;   180.00  15.16700   2 ;    C14-   C18-   C20-   C21
    24     28     30     55      9 ;   180.00  15.16700   2 ;    C14-   C18-   C20-   H23
    27     24      7     48      9 ;   180.00   4.39320   2 ;    C17-   C14-    N1-   H16
    27     24     28     30      9 ;   180.00  15.16700   2 ;    C17-   C14-   C18-   C20
    27     24     28     51      9 ;   180.00  15.16700   2 ;    C17-   C14-   C18-   H19
    27     29     31     30      9 ;   180.00  15.16700   2 ;    C17-   C19-   C21-   C20
    28     24      7     48      9 ;   180.00   4.39320   2 ;    C18-   C14-    N1-   H16
    28     24     27     29      9 ;   180.00  15.16700   2 ;    C18-   C14-   C17-   C19
    28     24     27     50      9 ;   180.00  15.16700   2 ;    C18-   C14-   C17-   H18
    28     30     31     29      9 ;   180.00  15.16700   2 ;    C18-   C20-   C21-   C19
    29     31     30     55      9 ;   180.00  15.16700   2 ;    C19-   C21-   C20-   H23
    31     29     27     50      9 ;   180.00  15.16700   2 ;    C21-   C19-   C17-   H18
    31     30     28     51      9 ;   180.00  15.16700   2 ;    C21-   C20-   C18-   H19
    32     10     13     38      9 ;     0.00   0.65084   3 ;      H-     C-    C3-    H6
    32     10     13     39      9 ;     0.00   0.65084   3 ;      H-     C-    C3-    H7
    33     10     13     38      9 ;     0.00   0.65084   3 ;     H1-     C-    C3-    H6
    33     10     13     39      9 ;     0.00   0.65084   3 ;     H1-     C-    C3-    H7
    34     11     14     40      9 ;     0.00   0.65084   3 ;     H2-    C1-    C4-    H8
    34     11     14     41      9 ;     0.00   0.65084   3 ;     H2-    C1-    C4-    H9
    35     11     14     40      9 ;     0.00   0.65084   3 ;     H3-    C1-    C4-    H8
    35     11     14     41      9 ;     0.00   0.65084   3 ;     H3-    C1-    C4-    H9
    36     12     15     42      9 ;     0.00   0.65084   3 ;     H4-    C2-    C5-   H10
    36     12     15     43      9 ;     0.00   0.65084   3 ;     H4-    C2-    C5-   H11
    37     12     15     42      9 ;     0.00   0.65084   3 ;     H5-    C2-    C5-   H10
    37     12     15     43      9 ;     0.00   0.65084   3 ;     H5-    C2-    C5-   H11
    38     13     16     44      9 ;     0.00   0.65084   3 ;     H6-    C3-    C6-   H12
    38     13     16     45      9 ;     0.00   0.65084   3 ;     H6-    C3-    C6-   H13
    39     13     16     44      9 ;     0.00   0.65084   3 ;     H7-    C3-    C6-   H12
    39     13     16     45      9 ;     0.00   0.65084   3 ;     H7-    C3-    C6-   H13
    51     28     30     55      9 ;   180.00  15.16700   2 ;    H19-   C18-   C20-   H23

[ dihedrals ] ; impropers
; treated as propers in GROMACS to use correct AMBER analytical function
;    i      j      k      l   func   phase     kd      pn
     1     29     31     27      4 ;   180.00   4.60240   2 ;     CL-   C19-   C21-   C17
    17     18     19     46      4 ;   180.00   4.60240   2 ;     C7-    C8-    C9-   H14
    17     22     20      5      4 ;   180.00   4.60240   2 ;     C7-   C12-   C10-    O2
    18      9     23      7      4 ;   180.00   4.60240   2 ;     C8-    N3-   C13-    N1
    18     22     21      8      4 ;   180.00   4.60240   2 ;     C8-   C12-   C11-    N2
    19     20     17      4      4 ;   180.00   4.60240   2 ;     C9-   C10-    C7-    O1
    19     21     18     23      4 ;   180.00   4.60240   2 ;     C9-   C11-    C8-   C13
    20     21     22     47      4 ;   180.00   4.60240   2 ;    C10-   C11-   C12-   H15
    23     24      7     48      4 ;   180.00   4.60240   2 ;    C13-   C14-    N1-   H16
    24     29     27     50      4 ;   180.00   4.60240   2 ;    C14-   C19-   C17-   H18
    24     30     28     51      4 ;   180.00   4.60240   2 ;    C14-   C20-   C18-   H19
    27     28     24      7      4 ;   180.00   4.60240   2 ;    C17-   C18-   C14-    N1
    28     31     30     55      4 ;   180.00   4.60240   2 ;    C18-   C21-   C20-   H23
    29     30     31      2      4 ;   180.00   4.60240   2 ;    C19-   C20-   C21-     F
    49      8     25      9      4 ;   180.00   4.60240   2 ;    H17-    N2-   C15-    N3
