%VERSION  VERSION_STAMP = V0001.000  DATE = 05/10/26  09:10:28                  
%FLAG TITLE                                                                     
%FORMAT(20a4)                                                                   
gefitinib_minimized.pdb                                                         
%FLAG POINTERS                                                                  
%FORMAT(10I8)                                                                   
      55      13      24      34      55      46      91      72       0       0
     295       1      34      46      72      18      32      18      14       0
       0       0       0       0       0       0       0       0      55       0
       0
%FLAG ATOM_NAME                                                                 
%FORMAT(20a4)                                                                   
Cl  F   O   O1  O2  N   N1  N2  N3  C   C1  C2  C3  C4  C5  C6  C7  C8  C9  C10 
C11 C12 C13 C14 C15 C16 C17 C18 C19 C20 C21 H   H1  H2  H3  H4  H5  H6  H7  H8  
H9  H10 H11 H12 H13 H14 H15 H16 H17 H18 H19 H20 H21 H22 H23 
%FLAG CHARGE                                                                    
%FORMAT(5E16.8)                                                                 
 -1.22818302E+00 -2.27596527E+00 -7.44563178E+00 -6.30309357E+00 -6.10264827E+00
 -1.33496570E+01 -1.32348565E+01 -1.28831661E+01 -1.39947264E+01  2.98481274E+00
  2.29236534E+00  2.29236534E+00 -1.59262902E+00  2.28507642E+00  2.28507642E+00
  2.44907712E+00  1.44138393E+00 -5.11317738E+00 -2.42356590E+00  2.20672053E+00
  7.93763388E+00 -3.39481449E+00  1.26863653E+01  2.45272158E+00  1.21706742E+01
  2.10832011E+00 -2.73334500E+00 -1.56711780E+00 -6.56002800E-02 -2.64223350E+00
  2.22129837E+00  7.78092210E-01  7.78092210E-01  7.78092210E-01  7.78092210E-01
  7.78092210E-01  7.78092210E-01  1.04231556E+00  1.04231556E+00  9.69426360E-01
  9.69426360E-01  9.69426360E-01  9.69426360E-01  9.42092910E-01  9.42092910E-01
  2.84267880E+00  3.13423560E+00  7.95950064E+00  1.00404873E+00  2.67867810E+00
  2.98845720E+00  8.75271736E-01  8.75271736E-01  8.75271736E-01  2.86090110E+00
%FLAG ATOMIC_NUMBER                                                             
%FORMAT(10I8)                                                                   
      17       9       8       8       8       7       7       7       7       6
       6       6       6       6       6       6       6       6       6       6
       6       6       6       6       6       6       6       6       6       6
       6       1       1       1       1       1       1       1       1       1
       1       1       1       1       1       1       1       1       1       1
       1       1       1       1       1
%FLAG MASS                                                                      
%FORMAT(5E16.8)                                                                 
  3.54500000E+01  1.90000000E+01  1.60000000E+01  1.60000000E+01  1.60000000E+01
  1.40100000E+01  1.40100000E+01  1.40100000E+01  1.40100000E+01  1.20100000E+01
  1.20100000E+01  1.20100000E+01  1.20100000E+01  1.20100000E+01  1.20100000E+01
  1.20100000E+01  1.20100000E+01  1.20100000E+01  1.20100000E+01  1.20100000E+01
  1.20100000E+01  1.20100000E+01  1.20100000E+01  1.20100000E+01  1.20100000E+01
  1.20100000E+01  1.20100000E+01  1.20100000E+01  1.20100000E+01  1.20100000E+01
  1.20100000E+01  1.00800000E+00  1.00800000E+00  1.00800000E+00  1.00800000E+00
  1.00800000E+00  1.00800000E+00  1.00800000E+00  1.00800000E+00  1.00800000E+00
  1.00800000E+00  1.00800000E+00  1.00800000E+00  1.00800000E+00  1.00800000E+00
  1.00800000E+00  1.00800000E+00  1.00800000E+00  1.00800000E+00  1.00800000E+00
  1.00800000E+00  1.00800000E+00  1.00800000E+00  1.00800000E+00  1.00800000E+00
%FLAG ATOM_TYPE_INDEX                                                           
%FORMAT(10I8)                                                                   
       1       2       3       3       3       4       5       6       6       7
       7       7       7       7       7       7       8       8       8       8
       8       8       8       8       8       7       8       8       8       8
       8       9       9       9       9       9       9      10      10       9
       9       9       9       9       9      11      11      12      13      11
      11       9       9       9      11
%FLAG NUMBER_EXCLUDED_ATOMS                                                     
%FORMAT(10I8)                                                                   
       7       6      13      14      10      19      14      10       8      16
      12      11       8       7       6       9      11      10       5       8
       6       4       7       9       1       3       7       7       4       3
       3       3       2       3       2       3       2       3       2       1
       1       1       1       1       1       1       1       1       1       1
       1       2       1       1       1
%FLAG NONBONDED_PARM_INDEX                                                      
%FORMAT(10I8)                                                                   
       1       2       4       7      11      16      22      29      37      46
      56      67      79       2       3       5       8      12      17      23
      30      38      47      57      68      80       4       5       6       9
      13      18      24      31      39      48      58      69      81       7
       8       9      10      14      19      25      32      40      49      59
      70      82      11      12      13      14      15      20      26      33
      41      50      60      71      83      16      17      18      19      20
      21      27      34      42      51      61      72      84      22      23
      24      25      26      27      28      35      43      52      62      73
      85      29      30      31      32      33      34      35      36      44
      53      63      74      86      37      38      39      40      41      42
      43      44      45      54      64      75      87      46      47      48
      49      50      51      52      53      54      55      65      76      88
      56      57      58      59      60      61      62      63      64      65
      66      77      89      67      68      69      70      71      72      73
      74      75      76      77      78      90      79      80      81      82
      83      84      85      86      87      88      89      90      91
%FLAG RESIDUE_LABEL                                                             
%FORMAT(20a4)                                                                   
UNL 
%FLAG RESIDUE_POINTER                                                           
%FORMAT(10I8)                                                                   
       1
%FLAG BOND_FORCE_CONSTANT                                                       
%FORMAT(5E16.8)                                                                 
  1.87980000E+02  3.35440000E+02  2.79780000E+02  2.82270000E+02  3.43340000E+02
  2.55850000E+02  2.53330000E+02  3.19920000E+02  4.72490000E+02  3.86490000E+02
  2.28890000E+02  3.44220000E+02  2.26810000E+02  3.42020000E+02  3.45250000E+02
  3.54250000E+02  3.60690000E+02  3.57590000E+02
%FLAG BOND_EQUIL_VALUE                                                          
%FORMAT(5E16.8)                                                                 
  1.75720000E+00  1.35020000E+00  1.43000000E+00  1.42730000E+00  1.36880000E+00
  1.46260000E+00  1.46570000E+00  1.39440000E+00  1.01370000E+00  1.33920000E+00
  1.53540000E+00  1.09690000E+00  1.53840000E+00  1.09840000E+00  1.09620000E+00
  1.39860000E+00  1.08600000E+00  1.08800000E+00
%FLAG ANGLE_FORCE_CONSTANT                                                      
%FORMAT(5E16.8)                                                                 
  6.40600000E+01  8.05500000E+01  7.64200000E+01  5.66800000E+01  7.74400000E+01
  5.62000000E+01  7.90000000E+01  6.49000000E+01  4.78400000E+01  6.54200000E+01
  4.78500000E+01  7.42500000E+01  6.74900000E+01  6.81700000E+01  7.27600000E+01
  5.01600000E+01  7.76800000E+01  5.98700000E+01  4.32700000E+01  7.81900000E+01
  4.32800000E+01  4.32800000E+01  8.82800000E+01  8.82600000E+01  6.36700000E+01
  4.49000000E+01  8.31500000E+01  7.57600000E+01  5.74600000E+01  3.56400000E+01
  3.57700000E+01  3.58000000E+01
%FLAG ANGLE_EQUIL_VALUE                                                         
%FORMAT(5E16.8)                                                                 
  2.08357495E+00  2.07624457E+00  1.92143380E+00  1.88635266E+00  1.87832415E+00
  1.92579712E+00  2.07886256E+00  1.97361916E+00  1.92143380E+00  1.93452377E+00
  1.91340528E+00  2.04500316E+00  2.10731144E+00  2.14570870E+00  2.22180509E+00
  2.02091761E+00  1.96140185E+00  1.96576518E+00  1.91427794E+00  1.93208031E+00
  1.90555129E+00  1.91270715E+00  1.97745889E+00  2.06629619E+00  2.09474507E+00
  2.09230160E+00  2.04622489E+00  2.27381592E+00  2.00241711E+00  1.89455572E+00
  1.87622975E+00  1.88024401E+00
%FLAG DIHEDRAL_FORCE_CONSTANT                                                   
%FORMAT(5E16.8)                                                                 
  3.62500000E+00  1.55555556E-01  2.50000000E-01  0.00000000E+00  2.10000000E-01
  1.00000000E-01  4.80000000E+00  1.05000000E+00  7.30000000E-01  2.25000000E-01
  3.50000000E-01  1.38000000E+00  1.16000000E+00  3.83333333E-01  3.37000000E-01
  1.66000000E+00  8.00000000E-01  1.10000000E+00
%FLAG DIHEDRAL_PERIODICITY                                                      
%FORMAT(5E16.8)                                                                 
  2.00000000E+00  3.00000000E+00  1.00000000E+00  3.00000000E+00  3.00000000E+00
  3.00000000E+00  2.00000000E+00  2.00000000E+00  3.00000000E+00  3.00000000E+00
  1.00000000E+00  2.00000000E+00  3.00000000E+00  3.00000000E+00  3.00000000E+00
  2.00000000E+00  2.00000000E+00  2.00000000E+00
%FLAG DIHEDRAL_PHASE                                                            
%FORMAT(5E16.8)                                                                 
  3.14159400E+00  0.00000000E+00  0.00000000E+00  0.00000000E+00  0.00000000E+00
  0.00000000E+00  3.14159400E+00  3.14159400E+00  0.00000000E+00  0.00000000E+00
  3.14159400E+00  0.00000000E+00  0.00000000E+00  0.00000000E+00  0.00000000E+00
  3.14159400E+00  3.14159400E+00  3.14159400E+00
%FLAG SCEE_SCALE_FACTOR                                                         
%FORMAT(5E16.8)                                                                 
  1.20000000E+00  1.20000000E+00  1.20000000E+00  1.20000000E+00  1.20000000E+00
  1.20000000E+00  1.20000000E+00  1.20000000E+00  1.20000000E+00  1.20000000E+00
  1.20000000E+00  1.20000000E+00  1.20000000E+00  1.20000000E+00  1.20000000E+00
  1.20000000E+00  1.20000000E+00  0.00000000E+00
%FLAG SCNB_SCALE_FACTOR                                                         
%FORMAT(5E16.8)                                                                 
  2.00000000E+00  2.00000000E+00  2.00000000E+00  2.00000000E+00  2.00000000E+00
  2.00000000E+00  2.00000000E+00  2.00000000E+00  2.00000000E+00  2.00000000E+00
  2.00000000E+00  2.00000000E+00  2.00000000E+00  2.00000000E+00  2.00000000E+00
  2.00000000E+00  2.00000000E+00  0.00000000E+00
%FLAG SOLTY                                                                     
%FORMAT(5E16.8)                                                                 
  0.00000000E+00  0.00000000E+00  0.00000000E+00  0.00000000E+00  0.00000000E+00
  0.00000000E+00  0.00000000E+00  0.00000000E+00  0.00000000E+00  0.00000000E+00
  0.00000000E+00  0.00000000E+00  0.00000000E+00  0.00000000E+00
%FLAG LENNARD_JONES_ACOEF                                                       
%FORMAT(5E16.8)                                                                 
  3.17107030E+06  8.23189596E+05  2.02652992E+05  9.60982218E+05  2.40318810E+05
  2.83662575E+05  1.51682150E+06  3.89148854E+05  4.55871651E+05  7.23647490E+05
  1.74815785E+06  4.43888519E+05  5.21588833E+05  8.32102309E+05  9.54886922E+05
  1.64251971E+06  4.22347898E+05  4.94433451E+05  7.84008042E+05  9.01905150E+05
  8.49322032E+05  1.80018612E+06  4.63627012E+05  5.42502534E+05  8.59569453E+05
  9.89136215E+05  9.31115275E+05  1.02073671E+06  1.49062160E+06  3.80155513E+05
  4.46121722E+05  7.10207765E+05  8.15700858E+05  7.69642101E+05  8.43969952E+05
  6.96551276E+05  1.25585106E+05  2.82810778E+04  3.44374471E+04  5.82112737E+04
  6.52595638E+04  6.34160397E+04  6.97998263E+04  5.63013422E+04  3.39005767E+03
  1.79601155E+05  4.15877422E+04  5.02224902E+04  8.37616145E+04  9.44129241E+04
  9.11435380E+04  1.00235148E+05  8.12662403E+04  5.22955465E+03  7.94617769E+03
  1.66104821E+05  3.86097375E+04  4.65732396E+04  7.75325560E+04  8.74566229E+04
  8.43518904E+04  9.27554496E+04  7.52549148E+04  4.88692384E+03  7.41026906E+03
  6.90855956E+03  4.18912581E+03  7.15600927E+02  9.46795083E+02  1.82809059E+03
  1.94284817E+03  2.01475241E+03  2.23577481E+03  1.71458823E+03  5.24570081E+01
  9.47421632E+01  9.04434904E+01  1.34728399E-01  1.16323183E+05  2.63019673E+04
  3.19887757E+04  5.39664468E+04  6.05484928E+04  5.87815925E+04  6.46910138E+04
  5.22195041E+04  3.17496391E+03  4.88692384E+03  4.56536476E+03  5.02830284E+01
  2.97255425E+03
%FLAG LENNARD_JONES_BCOEF                                                       
%FORMAT(5E16.8)                                                                 
  1.82923847E+03  6.98440575E+02  2.59697739E+02  7.29357620E+02  2.73330984E+02
  2.87011518E+02  9.55405536E+02  3.62652376E+02  3.79365004E+02  4.98353106E+02
  1.18814963E+03  4.48672968E+02  4.70067704E+02  6.19045117E+02  7.68192761E+02
  1.01742263E+03  3.86628088E+02  4.04310927E+02  5.30834917E+02  6.59538202E+02
  5.65406768E+02  1.10195051E+03  4.19082844E+02  4.38146883E+02  5.75038595E+02
  7.14570130E+02  6.12468585E+02  6.63431737E+02  9.81118883E+02  3.71304925E+02
  3.88758656E+02  5.11427129E+02  6.34916791E+02  5.44830041E+02  5.90251928E+02
  5.24668528E+02  1.92900608E+02  6.86000827E+01  7.31636661E+01  9.91793374E+01
  1.21646616E+02  1.05935811E+02  1.14981426E+02  1.01040256E+02  1.67944276E+01
  2.30684859E+02  8.31877412E+01  8.83545880E+01  1.18970742E+02  1.46316625E+02
  1.27000718E+02  1.37787728E+02  1.21392023E+02  2.08590256E+01  2.57122925E+01
  2.08087638E+02  7.51823196E+01  7.98066064E+01  1.07361937E+02  1.32088478E+02
  1.14599119E+02  1.24325688E+02  1.09570372E+02  1.89134207E+01  2.32899892E+01
  2.10929191E+01  2.93366416E+01  9.08649254E+00  1.01016461E+01  1.46352678E+01
  1.74775900E+01  1.57231024E+01  1.71355763E+01  1.46824710E+01  1.73959275E+00
  2.33785449E+00  2.14252117E+00  7.34107347E-02  1.74135895E+02  6.20528043E+01
  6.61407978E+01  8.95715726E+01  1.09905709E+02  9.56653235E+01  1.03827676E+02
  9.12729468E+01  1.52447987E+01  1.89134207E+01  1.71467049E+01  1.59752321E+00
  1.38359132E+01
%FLAG BONDS_INC_HYDROGEN                                                        
%FORMAT(10I8)                                                                   
      18     141       9      27      93      12      27      96      12      30
      99      14      30     102      14      33     105      14      33     108
      14      36     111      15      36     114      15      39     117      14
      39     120      14      42     123      14      42     126      14      45
     129      12      45     132      12      54     135      17      63     138
      17      72     144      18      75     153      12      75     156      12
      75     159      12      78     147      17      81     150      17      87
     162      17
%FLAG BONDS_WITHOUT_HYDROGEN                                                    
%FORMAT(10I8)                                                                   
       0      84       1       3      90       2       6      39       3       6
      42       3       9      45       4       9      48       5      12      57
       5      12      75       4      15      27       6      15      30       7
      15      33       7      18      66       8      18      69       8      21
      60      10      21      72      10      24      66      10      24      72
      10      27      36      11      30      39      13      33      42      13
      36      45      11      48      54      16      48      57      16      51
      54      16      51      60      16      51      66      16      57      63
      16      60      63      16      69      78      16      69      81      16
      78      84      16      81      87      16      84      90      16      87
      90      16
%FLAG ANGLES_INC_HYDROGEN                                                       
%FORMAT(10I8)                                                                   
       6      39     117       4       6      39     120       4       6      42
     123       4       6      42     126       4       9      45     129       6
       9      45     132       6      12      75     153       6      12      75
     156       6      12      75     159       6      15      27      93       9
      15      27      96       9      15      30      99      11      15      30
     102      11      15      33     105      11      15      33     108      11
      21      72     144      16      24      72     144      16      27      36
     111      19      27      36     114      19      30      39     117      21
      30      39     120      21      33      42     123      21      33      42
     126      21      36      27      93      22      36      27      96      22
      36      45     129      22      36      45     132      22      39      30
      99      21      39      30     102      21      42      33     105      21
      42      33     108      21      45      36     111      19      45      36
     114      19      48      54     135      26      51      54     135      26
      57      63     138      26      60      63     138      26      66      18
     141      29      69      18     141      29      69      78     147      26
      69      81     150      26      81      87     162      26      84      78
     147      26      87      81     150      26      90      87     162      26
      93      27      96      30      99      30     102      31     105      33
     108      31     111      36     114      32     117      39     120      31
     123      42     126      31     129      45     132      30     153      75
     156      30     153      75     159      30     156      75     159      30
%FLAG ANGLES_WITHOUT_HYDROGEN                                                   
%FORMAT(10I8)                                                                   
       0      84      78       1       0      84      90       1       3      90
      84       2       3      90      87       2       6      39      30       3
       6      42      33       3       9      45      36       5       9      48
      54       7       9      48      57       7      12      57      48       7
      12      57      63       7      15      27      36       8      15      30
      39      10      15      33      42      10      18      66      24      12
      18      66      51      13      18      69      78      13      18      69
      81      13      21      60      51      14      21      60      63      14
      21      72      24      15      24      66      51      14      27      15
      30      17      27      15      33      17      27      36      45      18
      30      15      33      20      39       6      42      23      45       9
      48      24      48      54      51      25      48      57      63      25
      51      60      63      25      54      48      57      25      54      51
      60      25      54      51      66      25      57      12      75      24
      57      63      60      25      60      21      72      27      60      51
      66      25      66      18      69      28      66      24      72      27
      69      78      84      25      69      81      87      25      78      69
      81      25      78      84      90      25      81      87      90      25
      84      90      87      25
%FLAG DIHEDRALS_INC_HYDROGEN                                                    
%FORMAT(10I8)                                                                   
       0      84      78     147       1       3      90      87     162       1
       6      39      30      99       3       6      39     -30      99       4
       6      39      30     102       3       6      39     -30     102       4
       6      42      33     105       3       6      42     -33     105       4
       6      42      33     108       3       6      42     -33     108       4
       9      45      36     111       3       9      45     -36     111       4
       9      45      36     114       3       9      45     -36     114       4
       9      48      54     135       1      12      57      63     138       1
      15      27      36     111       6      15      27      36     114       6
      15      30      39     117       2      15      30      39     120       2
      15      33      42     123       2      15      33      42     126       2
      18      69      78     147       1      18      69      81     150       1
      21      60      63     138       1      24      66      18     141       8
      27      15      30      99      10      27      15      30     102      10
      27      15      33     105      10      27      15      33     108      10
      27      36      45     129       2      27      36      45     132       2
      30      15      27      93      10      30      15      27      96      10
      30      15      33     105      10      30      15      33     108      10
      33      15      27      93      10      33      15      27      96      10
      33      15      30      99      10      33      15      30     102      10
      39       6      42     123      15      39       6      42     126      15
      42       6      39     117      15      42       6      39     120      15
      45      36      27      93       2      45      36      27      96       2
      48       9      45     129      14      48       9      45     132      14
      48      57      63     138       1      51      60      63     138       1
      51      66      18     141       8      57      12      75     153      14
      57      12      75     156      14      57      12      75     159      14
      57      48      54     135       1      60      21      72     144       7
      60      51      54     135       1      66      24      72     144       7
      66      51      54     135       1      69      81      87     162       1
      78      69      18     141       8      78      69      81     150       1
      81      69      18     141       8      81      69      78     147       1
      84      90      87     162       1      90      84      78     147       1
      90      87      81     150       1      93      27      36     111       2
      93      27      36     114       2      96      27      36     111       2
      96      27      36     114       2      99      30      39     117       2
      99      30      39     120       2     102      30      39     117       2
     102      30      39     120       2     105      33      42     123       2
     105      33      42     126       2     108      33      42     123       2
     108      33      42     126       2     111      36      45     129       2
     111      36      45     132       2     114      36      45     129       2
     114      36      45     132       2     150      81      87     162       1
      66      69     -18    -141      18      48      51     -54    -135      18
      57      60     -63    -138      18     144      21     -72     -24      18
      69      84     -78    -147      18      69      87     -81    -150      18
      81      90     -87    -162      18
%FLAG DIHEDRALS_WITHOUT_HYDROGEN                                                
%FORMAT(10I8)                                                                   
       0      84      78      69       1       0      84      90       3       1
       0      84      90      87       1       3      90      84      78       1
       3      90      87      81       1       6      39      30      15       2
       6      42     -33      15       2       9      45      36      27       2
       9      48      54      51       1       9      48      57      12       1
       9      48      57      63       1      12      57      48      54       1
      12      57      63      60       1      15      27      36      45       5
      18      66      24      72       7      18      66      51      54       1
      18      66      51      60       1      18      69      78      84       1
      18      69      81      87       1      21      60      51      54       1
      21      60      51      66       1      21      60      63      57       1
      21      72     -24      66       7      24      66      18      69       8
      24      66      51      54       1      24      66      51      60       1
      24      72     -21      60       7      27      15      30      39       9
      27      15      33      42       9      30      15      27      36       9
      30      15      33      42       9      30      39      -6      42      11
      30      39      -6      42      12      30      39      -6      42      13
      33      15      27      36       9      33      15      30      39       9
      33      42      -6      39      11      33      42      -6      39      12
      33      42      -6      39      13      36      45       9      48      14
      45       9      48      54      16      45       9      48      57      16
      48      54      51      60       1      48      54      51      66       1
      48      57      12      75      16      48      57     -63      60       1
      51      54      48      57       1      51      60      21      72       7
      51      60     -63      57       1      51      66      18      69      17
      51      66     -24      72       7      54      48      57      63       1
      54      51     -60      63       1      63      57      12      75      16
      63      60      21      72       7      63      60      51      66       1
      66      18      69      78      17      66      18      69      81      17
      69      78      84      90       1      69      81     -87      90       1
      78      69      81      87       1      78      84     -90      87       1
      81      69      78      84       1      81      87     -90      84       1
      54      57     -48      -9      18      54      60     -51     -66      18
      48      63     -57     -12      18      51      63     -60     -21      18
      51      24     -66     -18      18      78      81     -69     -18      18
       0      84     -90     -78      18      84      87     -90      -3      18
%FLAG EXCLUDED_ATOMS_LIST                                                       
%FORMAT(10I8)                                                                   
       2      24      27      29      30      31      50      27      28      29
      30      31      55       6      11      12      14      15      34      35
      36      37      40      41      42      43       5      10      13      16
      17      18      19      20      22      38      39      44      45      46
      17      19      20      21      22      26      47      52      53      54
      10      11      12      13      14      15      16      32      33      34
      35      36      37      38      39      40      41      42      43       9
      18      19      21      23      24      25      27      28      29      30
      48      50      51       9      18      19      20      21      22      23
      25      47      49      18      19      21      23      24      25      48
      49      11      12      13      14      15      16      32      33      34
      35      36      37      38      39      44      45      12      13      14
      15      32      33      34      35      36      37      40      41      13
      14      15      32      33      34      35      36      37      42      43
      16      17      32      33      38      39      44      45      15      34
      35      40      41      42      43      36      37      40      41      42
      43      17      19      20      32      33      38      39      44      45
      18      19      20      21      22      23      26      44      45      46
      47      19      20      21      22      23      24      25      46      47
      48      20      21      22      23      46      21      22      26      46
      47      52      53      54      22      23      25      46      47      49
      23      25      26      47      24      25      27      28      46      48
      49      27      28      29      30      31      48      50      51      55
      49      52      53      54      28      29      30      31      48      50
      51      29      30      31      48      50      51      55      30      31
      50      55      31      51      55      50      51      55      33      38
      39      38      39      35      40      41      40      41      37      42
      43      42      43      39      44      45      44      45      41       0
      43       0      45       0       0       0       0       0       0      55
      53      54      54       0       0
%FLAG HBOND_ACOEF                                                               
%FORMAT(5E16.8)                                                                 

%FLAG HBOND_BCOEF                                                               
%FORMAT(5E16.8)                                                                 

%FLAG HBCUT                                                                     
%FORMAT(5E16.8)                                                                 

%FLAG AMBER_ATOM_TYPE                                                           
%FORMAT(20a4)                                                                   
cl  f   os  os  os  n3  nu  nb  nb  c3  c6  c6  c3  c6  c6  c3  ca  ca  ca  ca  
ca  ca  ca  ca  ca  c3  ca  ca  ca  ca  ca  h1  h1  h1  h1  h1  h1  hc  hc  h1  
h1  h1  h1  h1  h1  ha  ha  hn  h5  ha  ha  h1  h1  h1  ha  
%FLAG TREE_CHAIN_CLASSIFICATION                                                 
%FORMAT(20a4)                                                                   
BLA BLA BLA BLA BLA BLA BLA BLA BLA BLA BLA BLA BLA BLA BLA BLA BLA BLA BLA BLA 
BLA BLA BLA BLA BLA BLA BLA BLA BLA BLA BLA BLA BLA BLA BLA BLA BLA BLA BLA BLA 
BLA BLA BLA BLA BLA BLA BLA BLA BLA BLA BLA BLA BLA BLA BLA 
%FLAG JOIN_ARRAY                                                                
%FORMAT(10I8)                                                                   
       0       0       0       0       0       0       0       0       0       0
       0       0       0       0       0       0       0       0       0       0
       0       0       0       0       0       0       0       0       0       0
       0       0       0       0       0       0       0       0       0       0
       0       0       0       0       0       0       0       0       0       0
       0       0       0       0       0
%FLAG IROTAT                                                                    
%FORMAT(10I8)                                                                   
       0       0       0       0       0       0       0       0       0       0
       0       0       0       0       0       0       0       0       0       0
       0       0       0       0       0       0       0       0       0       0
       0       0       0       0       0       0       0       0       0       0
       0       0       0       0       0       0       0       0       0       0
       0       0       0       0       0
%FLAG RADIUS_SET                                                                
%FORMAT(1a80)                                                                   
modified Bondi radii (mbondi)                                                   
%FLAG RADII                                                                     
%FORMAT(5E16.8)                                                                 
  1.70000000E+00  1.50000000E+00  1.50000000E+00  1.50000000E+00  1.50000000E+00
  1.55000000E+00  1.55000000E+00  1.55000000E+00  1.55000000E+00  1.70000000E+00
  1.70000000E+00  1.70000000E+00  1.70000000E+00  1.70000000E+00  1.70000000E+00
  1.70000000E+00  1.70000000E+00  1.70000000E+00  1.70000000E+00  1.70000000E+00
  1.70000000E+00  1.70000000E+00  1.70000000E+00  1.70000000E+00  1.70000000E+00
  1.70000000E+00  1.70000000E+00  1.70000000E+00  1.70000000E+00  1.70000000E+00
  1.70000000E+00  1.30000000E+00  1.30000000E+00  1.30000000E+00  1.30000000E+00
  1.30000000E+00  1.30000000E+00  1.30000000E+00  1.30000000E+00  1.30000000E+00
  1.30000000E+00  1.30000000E+00  1.30000000E+00  1.30000000E+00  1.30000000E+00
  1.30000000E+00  1.30000000E+00  1.30000000E+00  1.30000000E+00  1.30000000E+00
  1.30000000E+00  1.30000000E+00  1.30000000E+00  1.30000000E+00  1.30000000E+00
%FLAG SCREEN                                                                    
%FORMAT(5E16.8)                                                                 
  8.00000000E-01  8.80000000E-01  8.50000000E-01  8.50000000E-01  8.50000000E-01
  7.90000000E-01  7.90000000E-01  7.90000000E-01  7.90000000E-01  7.20000000E-01
  7.20000000E-01  7.20000000E-01  7.20000000E-01  7.20000000E-01  7.20000000E-01
  7.20000000E-01  7.20000000E-01  7.20000000E-01  7.20000000E-01  7.20000000E-01
  7.20000000E-01  7.20000000E-01  7.20000000E-01  7.20000000E-01  7.20000000E-01
  7.20000000E-01  7.20000000E-01  7.20000000E-01  7.20000000E-01  7.20000000E-01
  7.20000000E-01  8.50000000E-01  8.50000000E-01  8.50000000E-01  8.50000000E-01
  8.50000000E-01  8.50000000E-01  8.50000000E-01  8.50000000E-01  8.50000000E-01
  8.50000000E-01  8.50000000E-01  8.50000000E-01  8.50000000E-01  8.50000000E-01
  8.50000000E-01  8.50000000E-01  8.50000000E-01  8.50000000E-01  8.50000000E-01
  8.50000000E-01  8.50000000E-01  8.50000000E-01  8.50000000E-01  8.50000000E-01
%FLAG IPOL                                                                      
%FORMAT(1I8)                                                                    
       0
