%VERSION  VERSION_STAMP = V0001.000  DATE = 05/11/26  17:30:18
%FLAG CTITLE
%FORMAT(20a4)

%FLAG POINTERS
%FORMAT(10I8)
      55      48      24      34      55      46     180      80       0       0
     295       1      34      46      80      12      23     260       1       0
       0       0       0       0       0       0       0       0      55       0
       0
%FLAG FORCE_FIELD_TYPE
%FORMAT(i2,a78)
 1                               CHARMM force field: No FF information parsed...
%FLAG ATOM_NAME
%FORMAT(20a4)
N   N1  N2  N3  C   C1  C2  C3  C4  C5  C6  C7  C8  C9  C10 C11 C12 C13 C14 C15 
C16 C17 C18 C19 C20 C21 O   O1  O2  CL  F   H   H1  H2  H3  H4  H5  H6  H7  H8  
H9  H10 H11 H12 H13 H14 H15 H16 H17 H18 H19 H20 H21 H22 H23 
%FLAG CHARGE
%COMMENT Atomic charge multiplied by sqrt(332.0716D0) (CCELEC)
%FORMAT(3E24.16)
 -1.4760493784423339E+01 -1.0933699099572843E+01 -1.1298155736225272E+01
 -1.1298155736225272E+01  4.9201645948077797E+00  4.9201645948077797E+00
  4.9201645948077797E+00  0.0000000000000000E+00  5.1023929131339942E+00
  5.1023929131339942E+00  5.1023929131339942E+00  1.5033836261912661E+00
  0.0000000000000000E+00 -2.7334247748932108E+00  1.5033836261912661E+00
  5.6490778681126361E+00 -2.7334247748932108E+00  7.4713610513747764E+00
  1.8222831832621407E+00  8.5647309613320601E+00  5.1023929131339942E+00
 -2.7334247748932108E+00 -2.7334247748932108E+00  3.2254412343739887E+00
 -2.7334247748932108E+00  3.4623380481980672E+00 -1.0204785826267988E+01
 -6.6057765393252597E+00 -6.6057765393252597E+00 -3.2254412343739887E+00
 -3.4623380481980672E+00  0.0000000000000000E+00  0.0000000000000000E+00
  0.0000000000000000E+00  0.0000000000000000E+00  0.0000000000000000E+00
  0.0000000000000000E+00  0.0000000000000000E+00  0.0000000000000000E+00
  0.0000000000000000E+00  0.0000000000000000E+00  0.0000000000000000E+00
  0.0000000000000000E+00  0.0000000000000000E+00  0.0000000000000000E+00
  2.7334247748932108E+00  2.7334247748932108E+00  7.2891327330485627E+00
  2.7334247748932108E+00  2.7334247748932108E+00  2.7334247748932108E+00
  0.0000000000000000E+00  0.0000000000000000E+00  0.0000000000000000E+00
  2.7334247748932108E+00
%FLAG ATOMIC_NUMBER
%FORMAT(10I8)
       7       7       7       7       6       6       6       6       6       6
       6       6       6       6       6       6       6       6       6       6
       6       6       6       6       6       6       8       8       8      17
       9       1       1       1       1       1       1       1       1       1
       1       1       1       1       1       1       1       1       1       1
       1       1       1       1       1
%FLAG MASS
%FORMAT(5E16.8)
  1.40067000E+01  1.40067000E+01  1.40067000E+01  1.40067000E+01  1.20110000E+01
  1.20110000E+01  1.20110000E+01  1.20110000E+01  1.20110000E+01  1.20110000E+01
  1.20110000E+01  1.20110000E+01  1.20110000E+01  1.20110000E+01  1.20110000E+01
  1.20110000E+01  1.20110000E+01  1.20110000E+01  1.20110000E+01  1.20110000E+01
  1.20110000E+01  1.20110000E+01  1.20110000E+01  1.20110000E+01  1.20110000E+01
  1.20110000E+01  1.59994000E+01  1.59994000E+01  1.59994000E+01  3.54527000E+01
  1.89984000E+01  1.00790000E+00  1.00790000E+00  1.00790000E+00  1.00790000E+00
  1.00790000E+00  1.00790000E+00  1.00790000E+00  1.00790000E+00  1.00790000E+00
  1.00790000E+00  1.00790000E+00  1.00790000E+00  1.00790000E+00  1.00790000E+00
  1.00790000E+00  1.00790000E+00  1.00790000E+00  1.00790000E+00  1.00790000E+00
  1.00790000E+00  1.00790000E+00  1.00790000E+00  1.00790000E+00  1.00790000E+00
%FLAG ATOM_TYPE_INDEX
%FORMAT(10I8)
      39      40      41      41      42      42      42      42      42      42
      42      43      43      43      43      43      43      43      43      43
      42      43      43      43      43      43      44      44      44      45
      46      47      47      47      47      47      47      47      47      47
      47      47      47      47      47      47      47      48      47      47
      47      47      47      47      47
%FLAG NUMBER_EXCLUDED_ATOMS
%FORMAT(10I8)
      20      14      10       8      17      13      12       9       8       7
      10      13      11       7      10       7       6       7      10       1
       4       9       8       6       5       5       8       6       4       2
       1       3       2       3       2       3       2       3       2       1
       1       1       1       1       1       1       1       1       1       1
       1       2       1       1       1
%FLAG NONBONDED_PARM_INDEX
%FORMAT(10I8)
       1       2       4       7      11      16      22      29      37      46
      56      67      79      92     106     121     137     154     172     191
     211     232     254     277     301     326     352     379     407     436
     466     497     529     562     596     631     667     704     742     781
     821     862     904     947     991    1036    1082    1129       2       3
       5       8      12      17      23      30      38      47      57      68
      80      93     107     122     138     155     173     192     212     233
     255     278     302     327     353     380     408     437     467     498
     530     563     597     632     668     705     743     782     822     863
     905     948     992    1037    1083    1130       4       5       6       9
      13      18      24      31      39      48      58      69      81      94
     108     123     139     156     174     193     213     234     256     279
     303     328     354     381     409     438     468     499     531     564
     598     633     669     706     744     783     823     864     906     949
     993    1038    1084    1131       7       8       9      10      14      19
      25      32      40      49      59      70      82      95     109     124
     140     157     175     194     214     235     257     280     304     329
     355     382     410     439     469     500     532     565     599     634
     670     707     745     784     824     865     907     950     994    1039
    1085    1132      11      12      13      14      15      20      26      33
      41      50      60      71      83      96     110     125     141     158
     176     195     215     236     258     281     305     330     356     383
     411     440     470     501     533     566     600     635     671     708
     746     785     825     866     908     951     995    1040    1086    1133
      16      17      18      19      20      21      27      34      42      51
      61      72      84      97     111     126     142     159     177     196
     216     237     259     282     306     331     357     384     412     441
     471     502     534     567     601     636     672     709     747     786
     826     867     909     952     996    1041    1087    1134      22      23
      24      25      26      27      28      35      43      52      62      73
      85      98     112     127     143     160     178     197     217     238
     260     283     307     332     358     385     413     442     472     503
     535     568     602     637     673     710     748     787     827     868
     910     953     997    1042    1088    1135      29      30      31      32
      33      34      35      36      44      53      63      74      86      99
     113     128     144     161     179     198     218     239     261     284
     308     333     359     386     414     443     473     504     536     569
     603     638     674     711     749     788     828     869     911     954
     998    1043    1089    1136      37      38      39      40      41      42
      43      44      45      54      64      75      87     100     114     129
     145     162     180     199     219     240     262     285     309     334
     360     387     415     444     474     505     537     570     604     639
     675     712     750     789     829     870     912     955     999    1044
    1090    1137      46      47      48      49      50      51      52      53
      54      55      65      76      88     101     115     130     146     163
     181     200     220     241     263     286     310     335     361     388
     416     445     475     506     538     571     605     640     676     713
     751     790     830     871     913     956    1000    1045    1091    1138
      56      57      58      59      60      61      62      63      64      65
      66      77      89     102     116     131     147     164     182     201
     221     242     264     287     311     336     362     389     417     446
     476     507     539     572     606     641     677     714     752     791
     831     872     914     957    1001    1046    1092    1139      67      68
      69      70      71      72      73      74      75      76      77      78
      90     103     117     132     148     165     183     202     222     243
     265     288     312     337     363     390     418     447     477     508
     540     573     607     642     678     715     753     792     832     873
     915     958    1002    1047    1093    1140      79      80      81      82
      83      84      85      86      87      88      89      90      91     104
     118     133     149     166     184     203     223     244     266     289
     313     338     364     391     419     448     478     509     541     574
     608     643     679     716     754     793     833     874     916     959
    1003    1048    1094    1141      92      93      94      95      96      97
      98      99     100     101     102     103     104     105     119     134
     150     167     185     204     224     245     267     290     314     339
     365     392     420     449     479     510     542     575     609     644
     680     717     755     794     834     875     917     960    1004    1049
    1095    1142     106     107     108     109     110     111     112     113
     114     115     116     117     118     119     120     135     151     168
     186     205     225     246     268     291     315     340     366     393
     421     450     480     511     543     576     610     645     681     718
     756     795     835     876     918     961    1005    1050    1096    1143
     121     122     123     124     125     126     127     128     129     130
     131     132     133     134     135     136     152     169     187     206
     226     247     269     292     316     341     367     394     422     451
     481     512     544     577     611     646     682     719     757     796
     836     877     919     962    1006    1051    1097    1144     137     138
     139     140     141     142     143     144     145     146     147     148
     149     150     151     152     153     170     188     207     227     248
     270     293     317     342     368     395     423     452     482     513
     545     578     612     647     683     720     758     797     837     878
     920     963    1007    1052    1098    1145     154     155     156     157
     158     159     160     161     162     163     164     165     166     167
     168     169     170     171     189     208     228     249     271     294
     318     343     369     396     424     453     483     514     546     579
     613     648     684     721     759     798     838     879     921     964
    1008    1053    1099    1146     172     173     174     175     176     177
     178     179     180     181     182     183     184     185     186     187
     188     189     190     209     229     250     272     295     319     344
     370     397     425     454     484     515     547     580     614     649
     685     722     760     799     839     880     922     965    1009    1054
    1100    1147     191     192     193     194     195     196     197     198
     199     200     201     202     203     204     205     206     207     208
     209     210     230     251     273     296     320     345     371     398
     426     455     485     516     548     581     615     650     686     723
     761     800     840     881     923     966    1010    1055    1101    1148
     211     212     213     214     215     216     217     218     219     220
     221     222     223     224     225     226     227     228     229     230
     231     252     274     297     321     346     372     399     427     456
     486     517     549     582     616     651     687     724     762     801
     841     882     924     967    1011    1056    1102    1149     232     233
     234     235     236     237     238     239     240     241     242     243
     244     245     246     247     248     249     250     251     252     253
     275     298     322     347     373     400     428     457     487     518
     550     583     617     652     688     725     763     802     842     883
     925     968    1012    1057    1103    1150     254     255     256     257
     258     259     260     261     262     263     264     265     266     267
     268     269     270     271     272     273     274     275     276     299
     323     348     374     401     429     458     488     519     551     584
     618     653     689     726     764     803     843     884     926     969
    1013    1058    1104    1151     277     278     279     280     281     282
     283     284     285     286     287     288     289     290     291     292
     293     294     295     296     297     298     299     300     324     349
     375     402     430     459     489     520     552     585     619     654
     690     727     765     804     844     885     927     970    1014    1059
    1105    1152     301     302     303     304     305     306     307     308
     309     310     311     312     313     314     315     316     317     318
     319     320     321     322     323     324     325     350     376     403
     431     460     490     521     553     586     620     655     691     728
     766     805     845     886     928     971    1015    1060    1106    1153
     326     327     328     329     330     331     332     333     334     335
     336     337     338     339     340     341     342     343     344     345
     346     347     348     349     350     351     377     404     432     461
     491     522     554     587     621     656     692     729     767     806
     846     887     929     972    1016    1061    1107    1154     352     353
     354     355     356     357     358     359     360     361     362     363
     364     365     366     367     368     369     370     371     372     373
     374     375     376     377     378     405     433     462     492     523
     555     588     622     657     693     730     768     807     847     888
     930     973    1017    1062    1108    1155     379     380     381     382
     383     384     385     386     387     388     389     390     391     392
     393     394     395     396     397     398     399     400     401     402
     403     404     405     406     434     463     493     524     556     589
     623     658     694     731     769     808     848     889     931     974
    1018    1063    1109    1156     407     408     409     410     411     412
     413     414     415     416     417     418     419     420     421     422
     423     424     425     426     427     428     429     430     431     432
     433     434     435     464     494     525     557     590     624     659
     695     732     770     809     849     890     932     975    1019    1064
    1110    1157     436     437     438     439     440     441     442     443
     444     445     446     447     448     449     450     451     452     453
     454     455     456     457     458     459     460     461     462     463
     464     465     495     526     558     591     625     660     696     733
     771     810     850     891     933     976    1020    1065    1111    1158
     466     467     468     469     470     471     472     473     474     475
     476     477     478     479     480     481     482     483     484     485
     486     487     488     489     490     491     492     493     494     495
     496     527     559     592     626     661     697     734     772     811
     851     892     934     977    1021    1066    1112    1159     497     498
     499     500     501     502     503     504     505     506     507     508
     509     510     511     512     513     514     515     516     517     518
     519     520     521     522     523     524     525     526     527     528
     560     593     627     662     698     735     773     812     852     893
     935     978    1022    1067    1113    1160     529     530     531     532
     533     534     535     536     537     538     539     540     541     542
     543     544     545     546     547     548     549     550     551     552
     553     554     555     556     557     558     559     560     561     594
     628     663     699     736     774     813     853     894     936     979
    1023    1068    1114    1161     562     563     564     565     566     567
     568     569     570     571     572     573     574     575     576     577
     578     579     580     581     582     583     584     585     586     587
     588     589     590     591     592     593     594     595     629     664
     700     737     775     814     854     895     937     980    1024    1069
    1115    1162     596     597     598     599     600     601     602     603
     604     605     606     607     608     609     610     611     612     613
     614     615     616     617     618     619     620     621     622     623
     624     625     626     627     628     629     630     665     701     738
     776     815     855     896     938     981    1025    1070    1116    1163
     631     632     633     634     635     636     637     638     639     640
     641     642     643     644     645     646     647     648     649     650
     651     652     653     654     655     656     657     658     659     660
     661     662     663     664     665     666     702     739     777     816
     856     897     939     982    1026    1071    1117    1164     667     668
     669     670     671     672     673     674     675     676     677     678
     679     680     681     682     683     684     685     686     687     688
     689     690     691     692     693     694     695     696     697     698
     699     700     701     702     703     740     778     817     857     898
     940     983    1027    1072    1118    1165     704     705     706     707
     708     709     710     711     712     713     714     715     716     717
     718     719     720     721     722     723     724     725     726     727
     728     729     730     731     732     733     734     735     736     737
     738     739     740     741     779     818     858     899     941     984
    1028    1073    1119    1166     742     743     744     745     746     747
     748     749     750     751     752     753     754     755     756     757
     758     759     760     761     762     763     764     765     766     767
     768     769     770     771     772     773     774     775     776     777
     778     779     780     819     859     900     942     985    1029    1074
    1120    1167     781     782     783     784     785     786     787     788
     789     790     791     792     793     794     795     796     797     798
     799     800     801     802     803     804     805     806     807     808
     809     810     811     812     813     814     815     816     817     818
     819     820     860     901     943     986    1030    1075    1121    1168
     821     822     823     824     825     826     827     828     829     830
     831     832     833     834     835     836     837     838     839     840
     841     842     843     844     845     846     847     848     849     850
     851     852     853     854     855     856     857     858     859     860
     861     902     944     987    1031    1076    1122    1169     862     863
     864     865     866     867     868     869     870     871     872     873
     874     875     876     877     878     879     880     881     882     883
     884     885     886     887     888     889     890     891     892     893
     894     895     896     897     898     899     900     901     902     903
     945     988    1032    1077    1123    1170     904     905     906     907
     908     909     910     911     912     913     914     915     916     917
     918     919     920     921     922     923     924     925     926     927
     928     929     930     931     932     933     934     935     936     937
     938     939     940     941     942     943     944     945     946     989
    1033    1078    1124    1171     947     948     949     950     951     952
     953     954     955     956     957     958     959     960     961     962
     963     964     965     966     967     968     969     970     971     972
     973     974     975     976     977     978     979     980     981     982
     983     984     985     986     987     988     989     990    1034    1079
    1125    1172     991     992     993     994     995     996     997     998
     999    1000    1001    1002    1003    1004    1005    1006    1007    1008
    1009    1010    1011    1012    1013    1014    1015    1016    1017    1018
    1019    1020    1021    1022    1023    1024    1025    1026    1027    1028
    1029    1030    1031    1032    1033    1034    1035    1080    1126    1173
    1036    1037    1038    1039    1040    1041    1042    1043    1044    1045
    1046    1047    1048    1049    1050    1051    1052    1053    1054    1055
    1056    1057    1058    1059    1060    1061    1062    1063    1064    1065
    1066    1067    1068    1069    1070    1071    1072    1073    1074    1075
    1076    1077    1078    1079    1080    1081    1127    1174    1082    1083
    1084    1085    1086    1087    1088    1089    1090    1091    1092    1093
    1094    1095    1096    1097    1098    1099    1100    1101    1102    1103
    1104    1105    1106    1107    1108    1109    1110    1111    1112    1113
    1114    1115    1116    1117    1118    1119    1120    1121    1122    1123
    1124    1125    1126    1127    1128    1175    1129    1130    1131    1132
    1133    1134    1135    1136    1137    1138    1139    1140    1141    1142
    1143    1144    1145    1146    1147    1148    1149    1150    1151    1152
    1153    1154    1155    1156    1157    1158    1159    1160    1161    1162
    1163    1164    1165    1166    1167    1168    1169    1170    1171    1172
    1173    1174    1175    1176
%FLAG RESIDUE_LABEL
%FORMAT(20a4)
LIG1
%FLAG RESIDUE_POINTER
%FORMAT(10I8)
       1
%FLAG BOND_FORCE_CONSTANT
%FORMAT(5E16.8)
  3.65875956E+02  4.43888026E+02  4.73250000E+02  4.12869981E+02  3.06432003E+02
  3.42991037E+02  3.63214030E+02  4.01067997E+02  4.04019001E+02  3.81853011E+02
  2.43102055E+02  4.68571941E+02
%FLAG BOND_EQUIL_VALUE
%FORMAT(5E16.8)
  1.45100000E+00  1.39800000E+00  1.01800000E+00  1.33300000E+00  1.50800000E+00
  1.09300000E+00  1.41800000E+00  1.37400000E+00  1.37600000E+00  1.08400000E+00
  1.72100000E+00  1.34200000E+00
%FLAG ANGLE_FORCE_CONSTANT
%FORMAT(5E16.8)
  7.84428776E+01  7.22538241E+01  4.76410134E+01  7.80831740E+01  5.59165870E+01
  4.69945029E+01  4.57695985E+01  3.71343212E+01  6.12428298E+01  7.13898184E+01
  5.62045889E+01  4.81453155E+01  6.96630019E+01  4.05174474E+01  4.28919694E+01
  7.36926386E+01  7.52043499E+01  5.21749522E+01  4.98721319E+01  6.83675908E+01
  7.87296845E+01  8.61424474E+01  7.73625717E+01
%FLAG ANGLE_EQUIL_VALUE
%FORMAT(3E25.17)
  1.86781645889929160E+00  2.07725596913861121E+00  1.92488872543950618E+00
  2.01421467655657604E+00  1.89001704698465955E+00  1.92504580507218592E+00
  1.92944403478721149E+00  1.89954654470054840E+00  1.91302048652594481E+00
  1.88727688005902827E+00  1.89502614193788310E+00  2.09399367666523695E+00
  2.03322131211079427E+00  2.10436093242208289E+00  2.20154086517312741E+00
  2.15993221580558226E+00  2.12289632907826276E+00  2.25039263093644859E+00
  2.01739117579520544E+00  2.06812789715068091E+00  2.06062298136710531E+00
  1.86621075598745678E+00  1.79500132250608813E+00
%FLAG CHARMM_UREY_BRADLEY_COUNT
%COMMENT V(ub) = K_ub(r_ik - R_ub)**2
%COMMENT Number of Urey Bradley terms and types
%FORMAT(2I8)
       0       0
%FLAG CHARMM_UREY_BRADLEY
%COMMENT List of the two atoms and its parameter index
%COMMENT in each UB term: i,k,index
%FORMAT(10I8)

%FLAG CHARMM_UREY_BRADLEY_FORCE_CONSTANT
%COMMENT K_ub: kcal/mol/A**2
%FORMAT(5E16.8)

%FLAG CHARMM_UREY_BRADLEY_EQUIL_VALUE
%COMMENT r_ub: A
%FORMAT(5E16.8)

%FLAG DIHEDRAL_FORCE_CONSTANT
%FORMAT(5E16.8)
 -7.09990440E-01 -4.60086042E-02  5.50000000E-01 -3.71988528E-01 -6.17997132E-01
  1.69000956E-01 -3.71988528E-01 -6.17997132E-01  1.69000956E-01  1.50000000E-01
 -3.71988528E-01 -6.17997132E-01  1.69000956E-01 -3.71988528E-01 -6.17997132E-01
  1.69000956E-01  1.50000000E-01 -3.71988528E-01 -6.17997132E-01  1.69000956E-01
 -3.71988528E-01 -6.17997132E-01  1.69000956E-01  3.50000000E+00  3.50000000E+00
  3.50000000E+00  3.50000000E+00  3.50000000E+00  3.50000000E+00  3.50000000E+00
  3.50000000E+00  3.50000000E+00  3.50000000E+00  3.50000000E+00  3.50000000E+00
  2.00000000E+00  2.00000000E+00  3.50000000E+00  3.50000000E+00  3.50000000E+00
 -2.20004780E-01  3.92997132E-01  1.35994264E-01  1.96988528E-01 -1.92997132E-01
  2.80999044E-01  1.96988528E-01 -1.92997132E-01  2.80999044E-01 -2.20004780E-01
  3.92997132E-01  1.35994264E-01  1.96988528E-01 -1.92997132E-01  2.80999044E-01
  1.96988528E-01 -1.92997132E-01  2.80999044E-01 -3.44000956E-01  8.78011472E-01
  2.38001912E-01  3.20004780E-01 -3.15009560E-01  1.32002868E-01  3.20004780E-01
 -3.15009560E-01  1.32002868E-01 -2.20004780E-01  3.92997132E-01  1.35994264E-01
  1.96988528E-01 -1.92997132E-01  2.80999044E-01  1.96988528E-01 -1.92997132E-01
  2.80999044E-01 -2.20004780E-01  3.92997132E-01  1.35994264E-01  1.96988528E-01
 -1.92997132E-01  2.80999044E-01  1.96988528E-01 -1.92997132E-01  2.80999044E-01
 -3.40989484E-01  3.78011472E-01  3.78011472E-01 -2.20004780E-01  3.92997132E-01
  1.35994264E-01  1.96988528E-01 -1.92997132E-01  2.80999044E-01  1.96988528E-01
 -1.92997132E-01  2.80999044E-01 -2.20004780E-01  3.92997132E-01  1.35994264E-01
  1.96988528E-01 -1.92997132E-01  2.80999044E-01  1.96988528E-01 -1.92997132E-01
  2.80999044E-01 -3.40989484E-01  3.78011472E-01  3.78011472E-01  1.00000000E-01
  2.84990440E-01  1.59990440E-01  2.84990440E-01  2.84990440E-01  1.59990440E-01
  2.84990440E-01  2.84990440E-01  1.59990440E-01  2.84990440E-01  2.84990440E-01
  1.59990440E-01  2.84990440E-01  3.20004780E-01 -3.15009560E-01  1.32002868E-01
  3.20004780E-01 -3.15009560E-01  1.32002868E-01  2.19098948E+00  2.19098948E+00
  3.50000000E+00  3.50000000E+00  3.50000000E+00  3.50000000E+00  2.19098948E+00
  5.30114723E-02  5.30114723E-02  3.50000000E+00  3.50000000E+00  3.50000000E+00
  3.50000000E+00  3.50000000E+00  2.00000000E+00  3.57002868E-01  1.31400574E+00
  1.67700765E+00  3.50000000E+00  3.50000000E+00  3.50000000E+00  3.50000000E+00
  3.50000000E+00  5.30114723E-02  5.30114723E-02  5.30114723E-02  3.50000000E+00
  3.50000000E+00  3.50000000E+00  3.50000000E+00  2.19098948E+00  3.50000000E+00
  3.50000000E+00  2.00000000E+00  2.00000000E+00  3.50000000E+00  3.50000000E+00
  3.50000000E+00  3.50000000E+00  3.50000000E+00  3.50000000E+00  3.57002868E-01
  1.31400574E+00  1.67700765E+00  3.50000000E+00  3.50000000E+00  3.50000000E+00
  3.50000000E+00  3.57002868E-01  1.31400574E+00  1.67700765E+00  3.50000000E+00
  3.50000000E+00  3.50000000E+00  3.50000000E+00  3.50000000E+00  3.50000000E+00
  3.50000000E+00  3.50000000E+00 -3.27007648E-01  5.35994264E-01  1.40009560E-01
 -3.27007648E-01  5.35994264E-01  1.40009560E-01 -3.27007648E-01  5.35994264E-01
  1.40009560E-01 -3.27007648E-01  5.35994264E-01  1.40009560E-01 -3.27007648E-01
  5.35994264E-01  1.40009560E-01 -3.27007648E-01  5.35994264E-01  1.40009560E-01
  3.50000000E+00  3.50000000E+00  3.50000000E+00  3.50000000E+00  3.50000000E+00
  3.50000000E+00  1.41993308E-01 -6.92997132E-01  1.57002868E-01  1.41993308E-01
 -6.92997132E-01  1.57002868E-01  1.41993308E-01 -6.92997132E-01  1.57002868E-01
  1.41993308E-01 -6.92997132E-01  1.57002868E-01  1.41993308E-01 -6.92997132E-01
  1.57002868E-01  1.41993308E-01 -6.92997132E-01  1.57002868E-01  1.41993308E-01
 -6.92997132E-01  1.57002868E-01  1.41993308E-01 -6.92997132E-01  1.57002868E-01
  1.41993308E-01 -6.92997132E-01  1.57002868E-01  1.41993308E-01 -6.92997132E-01
  1.57002868E-01  1.41993308E-01 -6.92997132E-01  1.57002868E-01  1.41993308E-01
 -6.92997132E-01  1.57002868E-01  1.41993308E-01 -6.92997132E-01  1.57002868E-01
  1.41993308E-01 -6.92997132E-01  1.57002868E-01  1.41993308E-01 -6.92997132E-01
  1.57002868E-01  1.41993308E-01 -6.92997132E-01  1.57002868E-01  3.50000000E+00
%FLAG DIHEDRAL_PERIODICITY
%FORMAT(5E16.8)
  1.00000000E+00  2.00000000E+00  3.00000000E+00  1.00000000E+00  2.00000000E+00
  3.00000000E+00  1.00000000E+00  2.00000000E+00  3.00000000E+00  3.00000000E+00
  1.00000000E+00  2.00000000E+00  3.00000000E+00  1.00000000E+00  2.00000000E+00
  3.00000000E+00  3.00000000E+00  1.00000000E+00  2.00000000E+00  3.00000000E+00
  1.00000000E+00  2.00000000E+00  3.00000000E+00  2.00000000E+00  2.00000000E+00
  2.00000000E+00  2.00000000E+00  2.00000000E+00  2.00000000E+00  2.00000000E+00
  2.00000000E+00  2.00000000E+00  2.00000000E+00  2.00000000E+00  2.00000000E+00
  2.00000000E+00  2.00000000E+00  2.00000000E+00  2.00000000E+00  2.00000000E+00
  1.00000000E+00  2.00000000E+00  3.00000000E+00  1.00000000E+00  2.00000000E+00
  3.00000000E+00  1.00000000E+00  2.00000000E+00  3.00000000E+00  1.00000000E+00
  2.00000000E+00  3.00000000E+00  1.00000000E+00  2.00000000E+00  3.00000000E+00
  1.00000000E+00  2.00000000E+00  3.00000000E+00  1.00000000E+00  2.00000000E+00
  3.00000000E+00  1.00000000E+00  2.00000000E+00  3.00000000E+00  1.00000000E+00
  2.00000000E+00  3.00000000E+00  1.00000000E+00  2.00000000E+00  3.00000000E+00
  1.00000000E+00  2.00000000E+00  3.00000000E+00  1.00000000E+00  2.00000000E+00
  3.00000000E+00  1.00000000E+00  2.00000000E+00  3.00000000E+00  1.00000000E+00
  2.00000000E+00  3.00000000E+00  1.00000000E+00  2.00000000E+00  3.00000000E+00
  1.00000000E+00  2.00000000E+00  3.00000000E+00  1.00000000E+00  2.00000000E+00
  3.00000000E+00  1.00000000E+00  2.00000000E+00  3.00000000E+00  1.00000000E+00
  2.00000000E+00  3.00000000E+00  1.00000000E+00  2.00000000E+00  3.00000000E+00
  1.00000000E+00  2.00000000E+00  3.00000000E+00  1.00000000E+00  2.00000000E+00
  3.00000000E+00  1.00000000E+00  2.00000000E+00  3.00000000E+00  3.00000000E+00
  1.00000000E+00  2.00000000E+00  3.00000000E+00  1.00000000E+00  2.00000000E+00
  3.00000000E+00  1.00000000E+00  2.00000000E+00  3.00000000E+00  1.00000000E+00
  2.00000000E+00  3.00000000E+00  1.00000000E+00  2.00000000E+00  3.00000000E+00
  1.00000000E+00  2.00000000E+00  3.00000000E+00  2.00000000E+00  2.00000000E+00
  2.00000000E+00  2.00000000E+00  2.00000000E+00  2.00000000E+00  2.00000000E+00
  3.00000000E+00  3.00000000E+00  2.00000000E+00  2.00000000E+00  2.00000000E+00
  2.00000000E+00  2.00000000E+00  2.00000000E+00  1.00000000E+00  2.00000000E+00
  3.00000000E+00  2.00000000E+00  2.00000000E+00  2.00000000E+00  2.00000000E+00
  2.00000000E+00  3.00000000E+00  3.00000000E+00  3.00000000E+00  2.00000000E+00
  2.00000000E+00  2.00000000E+00  2.00000000E+00  2.00000000E+00  2.00000000E+00
  2.00000000E+00  2.00000000E+00  2.00000000E+00  2.00000000E+00  2.00000000E+00
  2.00000000E+00  2.00000000E+00  2.00000000E+00  2.00000000E+00  1.00000000E+00
  2.00000000E+00  3.00000000E+00  2.00000000E+00  2.00000000E+00  2.00000000E+00
  2.00000000E+00  1.00000000E+00  2.00000000E+00  3.00000000E+00  2.00000000E+00
  2.00000000E+00  2.00000000E+00  2.00000000E+00  2.00000000E+00  2.00000000E+00
  2.00000000E+00  2.00000000E+00  1.00000000E+00  2.00000000E+00  3.00000000E+00
  1.00000000E+00  2.00000000E+00  3.00000000E+00  1.00000000E+00  2.00000000E+00
  3.00000000E+00  1.00000000E+00  2.00000000E+00  3.00000000E+00  1.00000000E+00
  2.00000000E+00  3.00000000E+00  1.00000000E+00  2.00000000E+00  3.00000000E+00
  2.00000000E+00  2.00000000E+00  2.00000000E+00  2.00000000E+00  2.00000000E+00
  2.00000000E+00  1.00000000E+00  2.00000000E+00  3.00000000E+00  1.00000000E+00
  2.00000000E+00  3.00000000E+00  1.00000000E+00  2.00000000E+00  3.00000000E+00
  1.00000000E+00  2.00000000E+00  3.00000000E+00  1.00000000E+00  2.00000000E+00
  3.00000000E+00  1.00000000E+00  2.00000000E+00  3.00000000E+00  1.00000000E+00
  2.00000000E+00  3.00000000E+00  1.00000000E+00  2.00000000E+00  3.00000000E+00
  1.00000000E+00  2.00000000E+00  3.00000000E+00  1.00000000E+00  2.00000000E+00
  3.00000000E+00  1.00000000E+00  2.00000000E+00  3.00000000E+00  1.00000000E+00
  2.00000000E+00  3.00000000E+00  1.00000000E+00  2.00000000E+00  3.00000000E+00
  1.00000000E+00  2.00000000E+00  3.00000000E+00  1.00000000E+00  2.00000000E+00
  3.00000000E+00  1.00000000E+00  2.00000000E+00  3.00000000E+00  2.00000000E+00
%FLAG DIHEDRAL_PHASE
%FORMAT(5E16.8)
  0.00000000E+00  3.14159265E+00  0.00000000E+00  0.00000000E+00  3.14159265E+00
  0.00000000E+00  0.00000000E+00  3.14159265E+00  0.00000000E+00  0.00000000E+00
  0.00000000E+00  3.14159265E+00  0.00000000E+00  0.00000000E+00  3.14159265E+00
  0.00000000E+00  0.00000000E+00  0.00000000E+00  3.14159265E+00  0.00000000E+00
  0.00000000E+00  3.14159265E+00  0.00000000E+00  3.14159265E+00  3.14159265E+00
  3.14159265E+00  3.14159265E+00  3.14159265E+00  3.14159265E+00  3.14159265E+00
  3.14159265E+00  3.14159265E+00  3.14159265E+00  3.14159265E+00  3.14159265E+00
  3.14159265E+00  3.14159265E+00  3.14159265E+00  3.14159265E+00  3.14159265E+00
  0.00000000E+00  3.14159265E+00  0.00000000E+00  0.00000000E+00  3.14159265E+00
  0.00000000E+00  0.00000000E+00  3.14159265E+00  0.00000000E+00  0.00000000E+00
  3.14159265E+00  0.00000000E+00  0.00000000E+00  3.14159265E+00  0.00000000E+00
  0.00000000E+00  3.14159265E+00  0.00000000E+00  0.00000000E+00  3.14159265E+00
  0.00000000E+00  0.00000000E+00  3.14159265E+00  0.00000000E+00  0.00000000E+00
  3.14159265E+00  0.00000000E+00  0.00000000E+00  3.14159265E+00  0.00000000E+00
  0.00000000E+00  3.14159265E+00  0.00000000E+00  0.00000000E+00  3.14159265E+00
  0.00000000E+00  0.00000000E+00  3.14159265E+00  0.00000000E+00  0.00000000E+00
  3.14159265E+00  0.00000000E+00  0.00000000E+00  3.14159265E+00  0.00000000E+00
  0.00000000E+00  3.14159265E+00  0.00000000E+00  0.00000000E+00  3.14159265E+00
  0.00000000E+00  0.00000000E+00  3.14159265E+00  0.00000000E+00  0.00000000E+00
  3.14159265E+00  0.00000000E+00  0.00000000E+00  3.14159265E+00  0.00000000E+00
  0.00000000E+00  3.14159265E+00  0.00000000E+00  0.00000000E+00  3.14159265E+00
  0.00000000E+00  0.00000000E+00  3.14159265E+00  0.00000000E+00  0.00000000E+00
  0.00000000E+00  3.14159265E+00  0.00000000E+00  0.00000000E+00  3.14159265E+00
  0.00000000E+00  0.00000000E+00  3.14159265E+00  0.00000000E+00  0.00000000E+00
  3.14159265E+00  0.00000000E+00  0.00000000E+00  3.14159265E+00  0.00000000E+00
  0.00000000E+00  3.14159265E+00  0.00000000E+00  3.14159265E+00  3.14159265E+00
  3.14159265E+00  3.14159265E+00  3.14159265E+00  3.14159265E+00  3.14159265E+00
  0.00000000E+00  0.00000000E+00  3.14159265E+00  3.14159265E+00  3.14159265E+00
  3.14159265E+00  3.14159265E+00  3.14159265E+00  0.00000000E+00  3.14159265E+00
  0.00000000E+00  3.14159265E+00  3.14159265E+00  3.14159265E+00  3.14159265E+00
  3.14159265E+00  0.00000000E+00  0.00000000E+00  0.00000000E+00  3.14159265E+00
  3.14159265E+00  3.14159265E+00  3.14159265E+00  3.14159265E+00  3.14159265E+00
  3.14159265E+00  3.14159265E+00  3.14159265E+00  3.14159265E+00  3.14159265E+00
  3.14159265E+00  3.14159265E+00  3.14159265E+00  3.14159265E+00  0.00000000E+00
  3.14159265E+00  0.00000000E+00  3.14159265E+00  3.14159265E+00  3.14159265E+00
  3.14159265E+00  0.00000000E+00  3.14159265E+00  0.00000000E+00  3.14159265E+00
  3.14159265E+00  3.14159265E+00  3.14159265E+00  3.14159265E+00  3.14159265E+00
  3.14159265E+00  3.14159265E+00  0.00000000E+00  3.14159265E+00  0.00000000E+00
  0.00000000E+00  3.14159265E+00  0.00000000E+00  0.00000000E+00  3.14159265E+00
  0.00000000E+00  0.00000000E+00  3.14159265E+00  0.00000000E+00  0.00000000E+00
  3.14159265E+00  0.00000000E+00  0.00000000E+00  3.14159265E+00  0.00000000E+00
  3.14159265E+00  3.14159265E+00  3.14159265E+00  3.14159265E+00  3.14159265E+00
  3.14159265E+00  0.00000000E+00  3.14159265E+00  0.00000000E+00  0.00000000E+00
  3.14159265E+00  0.00000000E+00  0.00000000E+00  3.14159265E+00  0.00000000E+00
  0.00000000E+00  3.14159265E+00  0.00000000E+00  0.00000000E+00  3.14159265E+00
  0.00000000E+00  0.00000000E+00  3.14159265E+00  0.00000000E+00  0.00000000E+00
  3.14159265E+00  0.00000000E+00  0.00000000E+00  3.14159265E+00  0.00000000E+00
  0.00000000E+00  3.14159265E+00  0.00000000E+00  0.00000000E+00  3.14159265E+00
  0.00000000E+00  0.00000000E+00  3.14159265E+00  0.00000000E+00  0.00000000E+00
  3.14159265E+00  0.00000000E+00  0.00000000E+00  3.14159265E+00  0.00000000E+00
  0.00000000E+00  3.14159265E+00  0.00000000E+00  0.00000000E+00  3.14159265E+00
  0.00000000E+00  0.00000000E+00  3.14159265E+00  0.00000000E+00  3.14159265E+00
%FLAG SCEE_SCALE_FACTOR
%FORMAT(5E16.8)
  1.00000000E+00  1.00000000E+00  1.00000000E+00  1.00000000E+00  1.00000000E+00
  1.00000000E+00  1.00000000E+00  1.00000000E+00  1.00000000E+00  1.00000000E+00
  1.00000000E+00  1.00000000E+00  1.00000000E+00  1.00000000E+00  1.00000000E+00
  1.00000000E+00  1.00000000E+00  1.00000000E+00  1.00000000E+00  1.00000000E+00
  1.00000000E+00  1.00000000E+00  1.00000000E+00  1.00000000E+00  1.00000000E+00
  1.00000000E+00  1.00000000E+00  1.00000000E+00  1.00000000E+00  1.00000000E+00
  1.00000000E+00  1.00000000E+00  1.00000000E+00  1.00000000E+00  1.00000000E+00
  1.00000000E+00  1.00000000E+00  1.00000000E+00  1.00000000E+00  1.00000000E+00
  1.00000000E+00  1.00000000E+00  1.00000000E+00  1.00000000E+00  1.00000000E+00
  1.00000000E+00  1.00000000E+00  1.00000000E+00  1.00000000E+00  1.00000000E+00
  1.00000000E+00  1.00000000E+00  1.00000000E+00  1.00000000E+00  1.00000000E+00
  1.00000000E+00  1.00000000E+00  1.00000000E+00  1.00000000E+00  1.00000000E+00
  1.00000000E+00  1.00000000E+00  1.00000000E+00  1.00000000E+00  1.00000000E+00
  1.00000000E+00  1.00000000E+00  1.00000000E+00  1.00000000E+00  1.00000000E+00
  1.00000000E+00  1.00000000E+00  1.00000000E+00  1.00000000E+00  1.00000000E+00
  1.00000000E+00  1.00000000E+00  1.00000000E+00  1.00000000E+00  1.00000000E+00
  1.00000000E+00  1.00000000E+00  1.00000000E+00  1.00000000E+00  1.00000000E+00
  1.00000000E+00  1.00000000E+00  1.00000000E+00  1.00000000E+00  1.00000000E+00
  1.00000000E+00  1.00000000E+00  1.00000000E+00  1.00000000E+00  1.00000000E+00
  1.00000000E+00  1.00000000E+00  1.00000000E+00  1.00000000E+00  1.00000000E+00
  1.00000000E+00  1.00000000E+00  1.00000000E+00  1.00000000E+00  1.00000000E+00
  1.00000000E+00  1.00000000E+00  1.00000000E+00  1.00000000E+00  1.00000000E+00
  1.00000000E+00  1.00000000E+00  1.00000000E+00  1.00000000E+00  1.00000000E+00
  1.00000000E+00  1.00000000E+00  1.00000000E+00  1.00000000E+00  1.00000000E+00
  1.00000000E+00  1.00000000E+00  1.00000000E+00  1.00000000E+00  1.00000000E+00
  1.00000000E+00  1.00000000E+00  1.00000000E+00  1.00000000E+00  1.00000000E+00
  1.00000000E+00  1.00000000E+00  1.00000000E+00  1.00000000E+00  1.00000000E+00
  1.00000000E+00  1.00000000E+00  1.00000000E+00  1.00000000E+00  1.00000000E+00
  1.00000000E+00  1.00000000E+00  1.00000000E+00  1.00000000E+00  1.00000000E+00
  1.00000000E+00  1.00000000E+00  1.00000000E+00  1.00000000E+00  1.00000000E+00
  1.00000000E+00  1.00000000E+00  1.00000000E+00  1.00000000E+00  1.00000000E+00
  1.00000000E+00  1.00000000E+00  1.00000000E+00  1.00000000E+00  1.00000000E+00
  1.00000000E+00  1.00000000E+00  1.00000000E+00  1.00000000E+00  1.00000000E+00
  1.00000000E+00  1.00000000E+00  1.00000000E+00  1.00000000E+00  1.00000000E+00
  1.00000000E+00  1.00000000E+00  1.00000000E+00  1.00000000E+00  1.00000000E+00
  1.00000000E+00  1.00000000E+00  1.00000000E+00  1.00000000E+00  1.00000000E+00
  1.00000000E+00  1.00000000E+00  1.00000000E+00  1.00000000E+00  1.00000000E+00
  1.00000000E+00  1.00000000E+00  1.00000000E+00  1.00000000E+00  1.00000000E+00
  1.00000000E+00  1.00000000E+00  1.00000000E+00  1.00000000E+00  1.00000000E+00
  1.00000000E+00  1.00000000E+00  1.00000000E+00  1.00000000E+00  1.00000000E+00
  1.00000000E+00  1.00000000E+00  1.00000000E+00  1.00000000E+00  1.00000000E+00
  1.00000000E+00  1.00000000E+00  1.00000000E+00  1.00000000E+00  1.00000000E+00
  1.00000000E+00  1.00000000E+00  1.00000000E+00  1.00000000E+00  1.00000000E+00
  1.00000000E+00  1.00000000E+00  1.00000000E+00  1.00000000E+00  1.00000000E+00
  1.00000000E+00  1.00000000E+00  1.00000000E+00  1.00000000E+00  1.00000000E+00
  1.00000000E+00  1.00000000E+00  1.00000000E+00  1.00000000E+00  1.00000000E+00
  1.00000000E+00  1.00000000E+00  1.00000000E+00  1.00000000E+00  1.00000000E+00
  1.00000000E+00  1.00000000E+00  1.00000000E+00  1.00000000E+00  1.00000000E+00
  1.00000000E+00  1.00000000E+00  1.00000000E+00  1.00000000E+00  1.00000000E+00
  1.00000000E+00  1.00000000E+00  1.00000000E+00  1.00000000E+00  1.00000000E+00
  1.00000000E+00  1.00000000E+00  1.00000000E+00  1.00000000E+00  1.00000000E+00
  1.00000000E+00  1.00000000E+00  1.00000000E+00  1.00000000E+00  1.00000000E+00
%FLAG SCNB_SCALE_FACTOR
%FORMAT(5E16.8)
  1.00000000E+00  1.00000000E+00  1.00000000E+00  1.00000000E+00  1.00000000E+00
  1.00000000E+00  1.00000000E+00  1.00000000E+00  1.00000000E+00  1.00000000E+00
  1.00000000E+00  1.00000000E+00  1.00000000E+00  1.00000000E+00  1.00000000E+00
  1.00000000E+00  1.00000000E+00  1.00000000E+00  1.00000000E+00  1.00000000E+00
  1.00000000E+00  1.00000000E+00  1.00000000E+00  1.00000000E+00  1.00000000E+00
  1.00000000E+00  1.00000000E+00  1.00000000E+00  1.00000000E+00  1.00000000E+00
  1.00000000E+00  1.00000000E+00  1.00000000E+00  1.00000000E+00  1.00000000E+00
  1.00000000E+00  1.00000000E+00  1.00000000E+00  1.00000000E+00  1.00000000E+00
  1.00000000E+00  1.00000000E+00  1.00000000E+00  1.00000000E+00  1.00000000E+00
  1.00000000E+00  1.00000000E+00  1.00000000E+00  1.00000000E+00  1.00000000E+00
  1.00000000E+00  1.00000000E+00  1.00000000E+00  1.00000000E+00  1.00000000E+00
  1.00000000E+00  1.00000000E+00  1.00000000E+00  1.00000000E+00  1.00000000E+00
  1.00000000E+00  1.00000000E+00  1.00000000E+00  1.00000000E+00  1.00000000E+00
  1.00000000E+00  1.00000000E+00  1.00000000E+00  1.00000000E+00  1.00000000E+00
  1.00000000E+00  1.00000000E+00  1.00000000E+00  1.00000000E+00  1.00000000E+00
  1.00000000E+00  1.00000000E+00  1.00000000E+00  1.00000000E+00  1.00000000E+00
  1.00000000E+00  1.00000000E+00  1.00000000E+00  1.00000000E+00  1.00000000E+00
  1.00000000E+00  1.00000000E+00  1.00000000E+00  1.00000000E+00  1.00000000E+00
  1.00000000E+00  1.00000000E+00  1.00000000E+00  1.00000000E+00  1.00000000E+00
  1.00000000E+00  1.00000000E+00  1.00000000E+00  1.00000000E+00  1.00000000E+00
  1.00000000E+00  1.00000000E+00  1.00000000E+00  1.00000000E+00  1.00000000E+00
  1.00000000E+00  1.00000000E+00  1.00000000E+00  1.00000000E+00  1.00000000E+00
  1.00000000E+00  1.00000000E+00  1.00000000E+00  1.00000000E+00  1.00000000E+00
  1.00000000E+00  1.00000000E+00  1.00000000E+00  1.00000000E+00  1.00000000E+00
  1.00000000E+00  1.00000000E+00  1.00000000E+00  1.00000000E+00  1.00000000E+00
  1.00000000E+00  1.00000000E+00  1.00000000E+00  1.00000000E+00  1.00000000E+00
  1.00000000E+00  1.00000000E+00  1.00000000E+00  1.00000000E+00  1.00000000E+00
  1.00000000E+00  1.00000000E+00  1.00000000E+00  1.00000000E+00  1.00000000E+00
  1.00000000E+00  1.00000000E+00  1.00000000E+00  1.00000000E+00  1.00000000E+00
  1.00000000E+00  1.00000000E+00  1.00000000E+00  1.00000000E+00  1.00000000E+00
  1.00000000E+00  1.00000000E+00  1.00000000E+00  1.00000000E+00  1.00000000E+00
  1.00000000E+00  1.00000000E+00  1.00000000E+00  1.00000000E+00  1.00000000E+00
  1.00000000E+00  1.00000000E+00  1.00000000E+00  1.00000000E+00  1.00000000E+00
  1.00000000E+00  1.00000000E+00  1.00000000E+00  1.00000000E+00  1.00000000E+00
  1.00000000E+00  1.00000000E+00  1.00000000E+00  1.00000000E+00  1.00000000E+00
  1.00000000E+00  1.00000000E+00  1.00000000E+00  1.00000000E+00  1.00000000E+00
  1.00000000E+00  1.00000000E+00  1.00000000E+00  1.00000000E+00  1.00000000E+00
  1.00000000E+00  1.00000000E+00  1.00000000E+00  1.00000000E+00  1.00000000E+00
  1.00000000E+00  1.00000000E+00  1.00000000E+00  1.00000000E+00  1.00000000E+00
  1.00000000E+00  1.00000000E+00  1.00000000E+00  1.00000000E+00  1.00000000E+00
  1.00000000E+00  1.00000000E+00  1.00000000E+00  1.00000000E+00  1.00000000E+00
  1.00000000E+00  1.00000000E+00  1.00000000E+00  1.00000000E+00  1.00000000E+00
  1.00000000E+00  1.00000000E+00  1.00000000E+00  1.00000000E+00  1.00000000E+00
  1.00000000E+00  1.00000000E+00  1.00000000E+00  1.00000000E+00  1.00000000E+00
  1.00000000E+00  1.00000000E+00  1.00000000E+00  1.00000000E+00  1.00000000E+00
  1.00000000E+00  1.00000000E+00  1.00000000E+00  1.00000000E+00  1.00000000E+00
  1.00000000E+00  1.00000000E+00  1.00000000E+00  1.00000000E+00  1.00000000E+00
  1.00000000E+00  1.00000000E+00  1.00000000E+00  1.00000000E+00  1.00000000E+00
  1.00000000E+00  1.00000000E+00  1.00000000E+00  1.00000000E+00  1.00000000E+00
  1.00000000E+00  1.00000000E+00  1.00000000E+00  1.00000000E+00  1.00000000E+00
  1.00000000E+00  1.00000000E+00  1.00000000E+00  1.00000000E+00  1.00000000E+00
  1.00000000E+00  1.00000000E+00  1.00000000E+00  1.00000000E+00  1.00000000E+00
%FLAG CHARMM_NUM_IMPROPERS
%COMMENT Number of terms contributing to the
%COMMENT quadratic four atom improper energy term:
%COMMENT V(improper) = K_psi(psi - psi_0)**2
%FORMAT(10I8)
      32
%FLAG CHARMM_IMPROPERS
%COMMENT List of the four atoms in each improper term
%COMMENT i,j,k,l,index  i,j,k,l,index
%COMMENT where index is into the following two lists:
%COMMENT CHARMM_IMPROPER_{FORCE_CONSTANT,IMPROPER_PHASE}
%FORMAT(10I8)
       1       7       5       6       1       5       8       1      32       1
       5       8       1      33       1       6       9       1      34       1
       6       9       1      35       1       7      10       1      36       1
       7      10       1      37       1       8      11       5      38       1
       8      11       5      39       1       9      27       6      40       1
       9      27       6      41       1      11      28       8      44       1
      11      28       8      45       1      12      14      28      15       2
      14      13      12      46       3      13      18      14      16       4
      18       2      13       4       4      16       3      13      17       4
       2      19      18      48       5      19      22       2      23       6
      22      24      19      50       3      23      25      19      51       3
      24      30      22      26       4      15      17      12      29       2
      26      25      24      31       4      10      27       7      42       1
      10      27       7      43       1      17      15      16      47       3
      20       4       3      49       7      21      52      29      53       1
      21      52      29      54       1      25      26      23      55       3
%FLAG CHARMM_NUM_IMPR_TYPES
%COMMENT Number of unique parameters contributing to the
%COMMENT quadratic four atom improper energy term
%FORMAT(1I8)
       7
%FLAG CHARMM_IMPROPER_FORCE_CONSTANT
%COMMENT K_psi: kcal/mole/rad**2
%FORMAT(5E16.8)
  0.00000000E+00  3.45400335E+00  1.07900335E+00  2.51900096E+00 -3.60002390E-01
  3.31000239E+00  6.04500478E+00
%FLAG CHARMM_IMPROPER_PHASE
%COMMENT psi: radians
%FORMAT(5E16.8)
  0.00000000E+00  0.00000000E+00  0.00000000E+00  0.00000000E+00  0.00000000E+00
  0.00000000E+00  0.00000000E+00
%FLAG SOLTY
%FORMAT(5E16.8)
  0.00000000E+00
%FLAG LENNARD_JONES_ACOEF
%FORMAT(3E24.16)
  1.3165904011715765E+06  6.0932734790378879E+02  3.0881962957500978E-06
  1.1578517603226579E+06  7.8637376679586544E+02  9.9745485774258571E+05
  8.3095690887663732E+04  7.7171425248961869E+00  7.9104884241704363E+04
  3.8438651679589352E+03  1.5730411891398686E+06  1.0443826932347729E+03
  1.3568102643425162E+06  1.0696193546964854E+05  1.8454937599915641E+06
  6.2064871065900614E+05  1.9176970978195641E+02  5.5740112995361839E+05
  3.6111783237635667E+04  7.5632360393607558E+05  2.8637048204640194E+05
  1.3165904011715765E+06  6.0932734790378879E+02  1.1578517603226579E+06
  8.3095690887663732E+04  1.5730411891398686E+06  6.2064871065900614E+05
  1.3165904011715765E+06  6.0932734790378879E+02  3.0881962957500978E-06
  7.8637376679586544E+02  7.7171425248961869E+00  1.0443826932347729E+03
  1.9176970978195641E+02  6.0932734790378879E+02  3.0881962957500978E-06
  8.4844165957342868E+05  5.6330234172850351E+02  7.3181450069624896E+05
  5.7691408634173640E+04  9.9539274576517474E+05  4.0793366259465658E+05
  8.4844165957342868E+05  5.6330234172850351E+02  5.3687893169926677E+05
  6.8303381197467301E+04  5.8619945853187607E+00  6.5258511997806119E+04
  3.1143757320896952E+03  8.8220477787614393E+04  2.9572633227186696E+04
  6.8303381197467301E+04  5.8619945853187607E+00  4.7582942582331198E+04
  2.5216176718556662E+03  1.1578517603226579E+06  7.8637376679586544E+02
  9.9745485774258571E+05  7.9104884241704363E+04  1.3568102643425162E+06
  5.5740112995361839E+05  1.1578517603226579E+06  7.8637376679586544E+02
  7.3181450069624896E+05  6.5258511997806119E+04  9.9745485774258571E+05
  9.1569060591146539E+04  8.5040690305836417E+00  8.7171306487802824E+04
  4.2358288222775182E+03  1.1786897545875769E+05  3.9794146146660423E+04
  9.1569060591146539E+04  8.5040690305836417E+00  6.3574272460805900E+04
  3.4319524522739734E+03  8.7171306487802824E+04  4.6677614920515416E+03
  1.2548527649639365E+06  8.3312917635852773E+02  1.0823601590957884E+06
  8.5326106777518187E+04  1.4721947291891235E+06  6.0333751726210245E+05
  1.2548527649639365E+06  8.3312917635852773E+02  7.9404871777798817E+05
  7.0375595529548547E+04  1.0823601590957884E+06  9.4026914729908618E+04
  1.1744051199946317E+06  6.2064871065900614E+05  1.9176970978195641E+02
  5.5740112995361839E+05  3.6111783237635667E+04  7.5632360393607558E+05
  2.8637048204640194E+05  6.2064871065900614E+05  1.9176970978195641E+02
  4.0793366259465658E+05  2.9572633227186696E+04  5.5740112995361839E+05
  3.9794146146660423E+04  6.0333751726210245E+05  2.8637048204640194E+05
  1.4995335409527831E+06  1.0891514490522397E+03  1.2870533683434906E+06
  1.0390146771497960E+05  1.7511312344452834E+06  7.2459581272465666E+05
  1.4995335409527831E+06  1.0891514490522397E+03  9.4449700423675147E+05
  8.5769594681623697E+04  1.2870533683434906E+06  1.1449642804660142E+05
  1.3969194745370334E+06  7.2459581272465666E+05  1.6596400182180072E+06
  7.6933849775970390E+04  7.1448889511340132E+00  7.3238975641037789E+04
  3.5588288903045941E+03  9.9030327412448794E+04  3.3433966034442325E+04
  7.6933849775970390E+04  7.1448889511340132E+00  5.3413385433257848E+04
  2.8834336914344999E+03  7.3238975641037789E+04  3.9217270451529944E+03
  7.8998872392365462E+04  3.3433966034442325E+04  9.6196804230119087E+04
  3.2949290667216069E+03  1.3165904011715765E+06  6.0932734790378879E+02
  1.1578517603226579E+06  8.3095690887663732E+04  1.5730411891398686E+06
  6.2064871065900614E+05  1.3165904011715765E+06  6.0932734790378879E+02
  8.4844165957342868E+05  6.8303381197467301E+04  1.1578517603226579E+06
  9.1569060591146539E+04  1.2548527649639365E+06  6.2064871065900614E+05
  1.4995335409527831E+06  7.6933849775970390E+04  1.3165904011715765E+06
  1.8962122985823962E+06  1.8323346687951312E+03  1.6018328619492396E+06
  1.3959202440203869E+05  2.1815011444487385E+06  9.3117744915464043E+05
  1.8962122985823962E+06  1.8323346687951312E+03  1.1766230052561257E+06
  1.1554830103660947E+05  1.6018328619492396E+06  1.5382639465374168E+05
  1.7402358957811673E+06  9.3117744915464043E+05  2.0596729380714779E+06
  1.2924077916132211E+05  1.8962122985823962E+06  2.5248394826824055E+06
  1.5350319889792746E+06  1.8035454605124703E+03  1.2823755211227725E+06
  1.1786637472916704E+05  1.7476109981995474E+06  7.6234440411894105E+05
  1.5350319889792746E+06  1.8035454605124703E+03  9.4259831582157034E+05
  9.7750231128525236E+04  1.2823755211227725E+06  1.2988535378837773E+05
  1.3941112974741664E+06  7.6234440411894105E+05  1.6456238351355160E+06
  1.0912616370577861E+05  1.5350319889792746E+06  1.9999377330216018E+06
  1.5745873408935280E+06  1.8962122985823962E+06  1.8323346687951312E+03
  1.6018328619492396E+06  1.3959202440203869E+05  2.1815011444487385E+06
  9.3117744915464043E+05  1.8962122985823962E+06  1.8323346687951312E+03
  1.1766230052561257E+06  1.1554830103660947E+05  1.6018328619492396E+06
  1.5382639465374168E+05  1.7402358957811673E+06  9.3117744915464043E+05
  2.0596729380714779E+06  1.2924077916132211E+05  1.8962122985823962E+06
  2.5248394826824055E+06  1.9999377330216018E+06  2.5248394826824055E+06
  1.3165904011715765E+06  6.0932734790378879E+02  1.1578517603226579E+06
  8.3095690887663732E+04  1.5730411891398686E+06  6.2064871065900614E+05
  1.3165904011715765E+06  6.0932734790378879E+02  8.4844165957342868E+05
  6.8303381197467301E+04  1.1578517603226579E+06  9.1569060591146539E+04
  1.2548527649639365E+06  6.2064871065900614E+05  1.4995335409527831E+06
  7.6933849775970390E+04  1.3165904011715765E+06  1.8962122985823962E+06
  1.5350319889792746E+06  1.8962122985823962E+06  1.3165904011715765E+06
  1.0534391426594464E+05  9.7833472691112711E+00  1.0028460025491788E+05
  4.8730300979233079E+03  1.3560015976119597E+05  4.5780431653413536E+04
  1.0534391426594464E+05  9.7833472691112711E+00  7.3137833503977934E+04
  3.9482255530762031E+03  1.0028460025491788E+05  5.3699389647347543E+03
  1.0817150662083425E+05  4.5780431653413536E+04  1.3172027562620054E+05
  4.5116775792169419E+03  1.0534391426594464E+05  1.7696670060422018E+05
  1.4942417761581441E+05  1.7696670060422018E+05  1.0534391426594464E+05
  6.1777459139847060E+03  1.3165904011715765E+06  6.0932734790378879E+02
  1.1578517603226579E+06  8.3095690887663732E+04  1.5730411891398686E+06
  6.2064871065900614E+05  1.3165904011715765E+06  6.0932734790378879E+02
  8.4844165957342868E+05  6.8303381197467301E+04  1.1578517603226579E+06
  9.1569060591146539E+04  1.2548527649639365E+06  8.2989719675528607E+05
  1.4995335409527831E+06  7.6933849775970390E+04  1.3165904011715765E+06
  1.8962122985823962E+06  1.5350319889792746E+06  1.8962122985823962E+06
  1.3165904011715765E+06  1.0534391426594464E+05  1.3165904011715765E+06
  8.8325006820885744E+05  3.3147343281718668E+02  7.8534003930683131E+05
  5.3427618013626539E+04  1.0662483704974742E+06  4.1172776609242451E+05
  8.8325006820885744E+05  3.3147343281718668E+02  5.7509589909530524E+05
  4.3831228882437063E+04  7.8534003930683131E+05  5.8875697871557226E+04
  8.5057195265729236E+05  4.1172776609242451E+05  1.0190875926549704E+06
  4.9465770056657617E+04  8.8325006820885744E+05  1.2996046922540232E+06
  1.0582862283694015E+06  1.2996046922540232E+06  8.8325006820885744E+05
  6.7732446187491529E+04  8.8325006820885744E+05  5.8907530277013895E+05
  1.2254480396527511E+06  7.9960714001274562E+02  1.0579988725115627E+06
  8.3025182350772564E+04  1.4389772424494512E+06  5.8863292501027288E+05
  1.2254480396527511E+06  7.9960714001274562E+02  7.7613240397079778E+05
  6.8466541429545265E+04  1.0579988725115627E+06  9.1491362212111344E+04
  1.1479067324328776E+06  5.8863292501027288E+05  1.3657092894002351E+06
  7.6868569697940329E+04  1.2254480396527511E+06  1.7025999388435301E+06
  1.3646593413702336E+06  1.7025999388435301E+06  1.2254480396527511E+06
  1.0525452761802181E+05  1.2254480396527511E+06  8.3022239522460639E+05
  1.1219574448510485E+06  9.2090077615683389E+04  9.1773703628964949E+00
  8.7382686381735519E+04  4.3154450535672440E+03  1.1817773375108140E+05
  4.0155205985018220E+04  9.2090077615683389E+04  9.1773703628964949E+00
  6.3740805543190996E+04  3.4985876143156834E+03  8.7382686381735519E+04
  4.7554962882741684E+03  9.4273218640767940E+04  4.0155205985018220E+04
  1.1470803087856188E+05  3.9954394496392065E+03  9.2090077615683389E+04
  1.5373071011594997E+05  1.2958277957036061E+05  1.5373071011594997E+05
  9.2090077615683389E+04  5.4708718212230751E+03  9.2090077615683389E+04
  5.9314463021319127E+04  9.1744630791165153E+04  4.8422355994867112E+03
  1.2420803705921909E+06  8.0601407626756247E+02  1.0726800670102583E+06
  8.4055496688987128E+04  1.4589187268345731E+06  5.9644036195175757E+05
  1.2420803705921909E+06  8.0601407626756247E+02  7.8688812112739764E+05
  6.9312568381338933E+04  1.0726800670102583E+06  9.2626738969390368E+04
  1.1638145338248028E+06  5.9644036195175757E+05  1.3847345633019756E+06
  7.7822482562391815E+04  1.2420803705921909E+06  1.7267180219608734E+06
  1.3842146203375035E+06  1.7267180219608734E+06  1.2420803705921909E+06
  1.0656070058743098E+05  1.2420803705921909E+06  8.4135636134553456E+05
  1.1374899790464896E+06  9.2887514109630967E+04  1.1532325216870133E+06
  1.3165904011715765E+06  6.0932734790378879E+02  1.1578517603226579E+06
  8.3095690887663732E+04  1.5730411891398686E+06  6.2064871065900614E+05
  1.3165904011715765E+06  6.0932734790378879E+02  8.4844165957342868E+05
  6.8303381197467301E+04  1.1578517603226579E+06  9.1569060591146539E+04
  1.2548527649639365E+06  6.2064871065900614E+05  1.4995335409527831E+06
  7.6933849775970390E+04  1.3165904011715765E+06  1.8962122985823962E+06
  1.5350319889792746E+06  1.8962122985823962E+06  1.3165904011715765E+06
  1.0534391426594464E+05  1.3165904011715765E+06  8.8325006820885744E+05
  1.2254480396527511E+06  9.2090077615683389E+04  1.2420803705921909E+06
  1.3165904011715765E+06  9.5680097113890934E+05  4.5416837581173201E+02
  8.4031396456533531E+05  6.0700845810653787E+04  1.1417307365843938E+06
  4.5165860927281692E+05  9.5680097113890934E+05  4.5416837581173201E+02
  6.1580836383777857E+05  4.9906968756034912E+04  8.4031396456533531E+05
  6.6890585644011764E+04  9.1078605031991191E+05  4.5165860927281692E+05
  1.0880301976860918E+06  5.6199662136324732E+04  9.5680097113890934E+05
  1.3744327901712656E+06  1.1118363247036161E+06  1.3744327901712656E+06
  9.5680097113890934E+05  7.6953024021335252E+04  9.5680097113890934E+05
  6.4234009273908066E+05  8.8949846815433668E+05  6.7256875476689063E+04
  9.0158869297942927E+05  9.5680097113890934E+05  6.9527188349125767E+05
  1.2420803705921909E+06  8.0601407626756247E+02  1.0726800670102583E+06
  8.4055496688987128E+04  1.4589187268345731E+06  5.9644036195175757E+05
  1.2420803705921909E+06  8.0601407626756247E+02  7.8688812112739764E+05
  6.9312568381338933E+04  1.0726800670102583E+06  9.2626738969390368E+04
  1.1638145338248028E+06  5.9644036195175757E+05  1.3847345633019756E+06
  7.7822482562391815E+04  1.2420803705921909E+06  1.7267180219608734E+06
  1.3842146203375035E+06  1.7267180219608734E+06  1.2420803705921909E+06
  1.0656070058743098E+05  1.2420803705921909E+06  8.4135636134553456E+05
  1.1374899790464896E+06  9.2887514109630967E+04  1.1532325216870133E+06
  1.2420803705921909E+06  9.0158869297942927E+05  1.1532325216870133E+06
  3.1816324601013428E+06  2.1123680044136227E+03  2.7442838808253184E+06
  2.1634116654731764E+05  3.7326949174892516E+06  1.5297398092542172E+06
  3.1816324601013428E+06  2.1123680044136227E+03  2.0132809568753694E+06
  1.7843470197255339E+05  2.7442838808253184E+06  2.3840174112893309E+05
  2.9776604518152513E+06  1.5297398092542172E+06  3.5418373122542920E+06
  2.0029869936348844E+05  3.1816324601013428E+06  4.4123033146522352E+06
  3.5347172838761527E+06  4.4123033146522352E+06  3.1816324601013428E+06
  2.7426482718297589E+05  3.1816324601013428E+06  2.1565935142231593E+06
  2.9104747768414663E+06  2.3902623552359018E+05  2.9508084149307520E+06
  3.1816324601013428E+06  2.3092641167257628E+06  2.9508084149307520E+06
  7.5497471999654891E+06  1.3165904011715765E+06  6.0932734790378879E+02
  1.1578517603226579E+06  8.3095690887663732E+04  1.5730411891398686E+06
  6.2064871065900614E+05  1.3165904011715765E+06  6.0932734790378879E+02
  8.4844165957342868E+05  6.8303381197467301E+04  1.1578517603226579E+06
  9.1569060591146539E+04  1.2548527649639365E+06  6.2064871065900614E+05
  1.4995335409527831E+06  7.6933849775970390E+04  1.3165904011715765E+06
  1.8962122985823962E+06  1.5350319889792746E+06  1.8962122985823962E+06
  1.3165904011715765E+06  1.0534391426594464E+05  1.3165904011715765E+06
  8.8325006820885744E+05  1.2254480396527511E+06  9.2090077615683389E+04
  1.2420803705921909E+06  1.3165904011715765E+06  9.5680097113890934E+05
  1.2420803705921909E+06  3.1816324601013428E+06  1.3165904011715765E+06
  5.5913203239071474E+05  2.2733838906756145E+02  4.9507958320120687E+05
  3.4372893114916667E+04  6.7233311761793948E+05  2.6175329502115984E+05
  5.5913203239071474E+05  2.2733838906756145E+02  3.6263222478608653E+05
  2.8219946682573602E+04  4.9507958320120687E+05  3.7877939261469939E+04
  5.3633628759652155E+05  2.6175329502115984E+05  6.4195659547407005E+05
  3.1824020800831633E+04  5.5913203239071474E+05  8.1604093132930633E+05
  6.6302721781265875E+05  8.1604093132930633E+05  5.5913203239071474E+05
  4.3575967257621363E+04  5.5913203239071474E+05  3.7373987063522288E+05
  5.2360486976182566E+05  3.8134774263867606E+04  5.3065899469845416E+05
  5.5913203239071474E+05  4.0651607258340577E+05  5.3065899469845416E+05
  1.3598606862824927E+06  5.5913203239071474E+05  2.3691906692031675E+05
  5.5913203239071474E+05  2.2733838906756145E+02  4.9507958320120687E+05
  3.4372893114916667E+04  6.7233311761793948E+05  2.6175329502115984E+05
  5.5913203239071474E+05  2.2733838906756145E+02  3.6263222478608653E+05
  2.8219946682573602E+04  4.9507958320120687E+05  3.7877939261469939E+04
  5.3633628759652155E+05  2.6175329502115984E+05  6.4195659547407005E+05
  3.1824020800831633E+04  5.5913203239071474E+05  8.1604093132930633E+05
  6.6302721781265875E+05  8.1604093132930633E+05  5.5913203239071474E+05
  4.3575967257621363E+04  5.5913203239071474E+05  3.7373987063522288E+05
  5.2360486976182566E+05  3.8134774263867606E+04  5.3065899469845416E+05
  5.5913203239071474E+05  4.0651607258340577E+05  5.3065899469845416E+05
  1.3598606862824927E+06  5.5913203239071474E+05  2.3691906692031675E+05
  2.3691906692031675E+05  1.7942449253436425E+04  1.8804523059916722E-01
  1.8714601202998652E+04  5.7269834931128173E+02  2.5167884959820367E+04
  7.0899831243693197E+03  1.7942449253436425E+04  1.8804523059916722E-01
  1.3574649049678801E+04  4.5585440381892460E+02  1.8714601202998652E+04
  6.3109710369253025E+02  2.0077026748036868E+04  7.0899831243693197E+03
  2.4979764421615226E+04  5.3023072920140339E+02  1.7942449253436425E+04
  3.5949858794527696E+04  3.1828352274688245E+04  3.5949858794527696E+04
  1.7942449253436425E+04  7.2603386728748183E+02  1.7942449253436425E+04
  1.0979318268346664E+04  1.9454660533342423E+04  6.5325669140816558E+02
  1.9670188601176935E+04  1.7942449253436425E+04  1.3185696700532804E+04
  1.9670188601176935E+04  5.0904553735204769E+04  1.7942449253436425E+04
  7.1982110326508873E+03  7.1982110326508873E+03  5.3213137587220949E+01
  1.3165904011715765E+06  6.0932734790378879E+02  1.1578517603226579E+06
  8.3095690887663732E+04  1.5730411891398686E+06  6.2064871065900614E+05
  1.3165904011715765E+06  6.0932734790378879E+02  8.4844165957342868E+05
  6.8303381197467301E+04  1.1578517603226579E+06  9.1569060591146539E+04
  1.2548527649639365E+06  6.2064871065900614E+05  1.4995335409527831E+06
  7.6933849775970390E+04  1.3165904011715765E+06  1.8962122985823962E+06
  1.5350319889792746E+06  1.8962122985823962E+06  1.3165904011715765E+06
  1.0534391426594464E+05  1.3165904011715765E+06  8.8325006820885744E+05
  1.2254480396527511E+06  9.2090077615683389E+04  1.2420803705921909E+06
  1.3165904011715765E+06  9.5680097113890934E+05  1.2420803705921909E+06
  3.1816324601013428E+06  1.3165904011715765E+06  5.5913203239071474E+05
  5.5913203239071474E+05  1.7942449253436425E+04  1.3165904011715765E+06
  7.0325173971672557E+04  1.0466410599579950E+01  6.5482382975278386E+04
  3.5515651610843352E+03  8.8659370897337649E+04  3.1267411922221578E+04
  7.0325173971672557E+04  1.0466410599579950E+01  4.7819665689748719E+04
  2.8894057234028710E+03  6.5482382975278386E+04  3.9137226245388533E+03
  7.0725711112066128E+04  3.1267411922221578E+04  8.5672260090075244E+04
  3.2882039688654477E+03  7.0325173971672557E+04  1.1318024683684016E+05
  9.4456567677033963E+04  1.1318024683684016E+05  7.0325173971672557E+04
  4.5024690431297413E+03  7.0325173971672557E+04  4.5758018076539134E+04
  6.8888050924137526E+04  3.9725975384319290E+03  6.9765243201662655E+04
  7.0325173971672557E+04  5.1297800327355653E+04  6.9765243201662655E+04
  1.7932240699518783E+05  7.0325173971672557E+04  2.9305478275302543E+04
  2.9305478275302543E+04  5.8888977888729755E+02  7.0325173971672557E+04
  3.2005977025023490E+03  3.0991959086478737E+03  6.0139228293242973E-04
  3.6754590768554026E+03  5.7254770780220916E+01  4.9055686185684062E+03
  1.0686909754730141E+03  3.0991959086478737E+03  6.0139228293242973E-04
  2.6458867120735222E+03  4.4350166523722407E+01  3.6754590768554026E+03
  6.3093110108367711E+01  3.9132899934405573E+03  1.0686909754730141E+03
  5.0169310890149991E+03  5.3009125829617112E+01  3.0991959086478737E+03
  7.9384010840633391E+03  7.4974413514926719E+03  7.9384010840633391E+03
  3.0991959086478737E+03  7.2584289268883424E+01  3.0991959086478737E+03
  1.7672643990583110E+03  3.7700795624639600E+03  6.6914187086407580E+01
  3.8048533653700297E+03  3.0991959086478737E+03  2.2970129991610393E+03
  3.8048533653700297E+03  9.9220010638284475E+03  3.0991959086478737E+03
  1.1903514889368621E+03  1.1903514889368621E+03  2.4853046062496400E+00
  3.0991959086478737E+03  6.9224921372166335E+01  2.8242953649661659E-02
  1.3165778026999428E+06  6.0931694859100128E+02  1.1578411400751893E+06
  8.3094768621198498E+04  1.5730267231438505E+06  6.2064252072062099E+05
  1.3165778026999428E+06  6.0931694859100128E+02  8.4843385713713267E+05
  6.8302618325732255E+04  1.1578411400751893E+06  9.1568044280036615E+04
  1.2548412250912194E+06  6.2064252072062099E+05  1.4995198927464944E+06
  7.6932995898844747E+04  1.3165778026999428E+06  1.8961956188096178E+06
  1.5350188136166900E+06  1.8961956188096178E+06  1.3165778026999428E+06
  1.0534274506982382E+05  1.3165778026999428E+06  8.8324142959684099E+05
  1.2254367479015524E+06  9.2089061320155291E+04  1.2420689184311761E+06
  1.3165778026999428E+06  9.5679184017544519E+05  1.2420689184311761E+06
  3.1816032011837647E+06  1.3165778026999428E+06  5.5912660875658481E+05
  5.5912660875658481E+05  1.7942218250619047E+04  1.3165778026999428E+06
  7.0324423553891174E+04  3.0991482008976773E+03  1.3165652043388197E+06
  1.3165778026999428E+06  6.0931694859100128E+02  1.1578411400751893E+06
  8.3094768621198498E+04  1.5730267231438505E+06  6.2064252072062099E+05
  1.3165778026999428E+06  6.0931694859100128E+02  8.4843385713713267E+05
  6.8302618325732255E+04  1.1578411400751893E+06  9.1568044280036615E+04
  1.2548412250912194E+06  6.2064252072062099E+05  1.4995198927464944E+06
  7.6932995898844747E+04  1.3165778026999428E+06  1.8961956188096178E+06
  1.5350188136166900E+06  1.8961956188096178E+06  1.3165778026999428E+06
  1.0534274506982382E+05  1.3165778026999428E+06  8.8324142959684099E+05
  1.2254367479015524E+06  9.2089061320155291E+04  1.2420689184311761E+06
  1.3165778026999428E+06  9.5679184017544519E+05  1.2420689184311761E+06
  3.1816032011837647E+06  1.3165778026999428E+06  5.5912660875658481E+05
  5.5912660875658481E+05  1.7942218250619047E+04  1.3165778026999428E+06
  7.0324423553891174E+04  3.0991482008976773E+03  1.3165652043388197E+06
  1.3165652043388197E+06  1.3165778026999428E+06  6.0931694859100128E+02
  1.1578411400751893E+06  8.3094768621198498E+04  1.5730267231438505E+06
  6.2064252072062099E+05  1.3165778026999428E+06  6.0931694859100128E+02
  8.4843385713713267E+05  6.8302618325732255E+04  1.1578411400751893E+06
  9.1568044280036615E+04  1.2548412250912194E+06  6.2064252072062099E+05
  1.4995198927464944E+06  7.6932995898844747E+04  1.3165778026999428E+06
  1.8961956188096178E+06  1.5350188136166900E+06  1.8961956188096178E+06
  1.3165778026999428E+06  1.0534274506982382E+05  1.3165778026999428E+06
  8.8324142959684099E+05  1.2254367479015524E+06  9.2089061320155291E+04
  1.2420689184311761E+06  1.3165778026999428E+06  9.5679184017544519E+05
  1.2420689184311761E+06  3.1816032011837647E+06  1.3165778026999428E+06
  5.5912660875658481E+05  5.5912660875658481E+05  1.7942218250619047E+04
  1.3165778026999428E+06  7.0324423553891174E+04  3.0991482008976773E+03
  1.3165652043388197E+06  1.3165652043388197E+06  1.3165652043388197E+06
  1.1578558924711721E+06  7.8637373171235822E+02  9.9745861466242513E+05
  7.9105106732432076E+04  1.3568153586387406E+06  5.5740300726700318E+05
  1.1578558924711721E+06  7.8637373171235822E+02  7.3181724837582209E+05
  6.5258693300919222E+04  9.9745861466242513E+05  8.7171551666183441E+04
  1.0823642229383290E+06  5.5740300726700318E+05  1.2870582615091293E+06
  7.3239181633286484E+04  1.1578558924711721E+06  1.6018391964796642E+06
  1.2823807294526750E+06  1.6018391964796642E+06  1.1578558924711721E+06
  1.0028488231580329E+05  1.1578558924711721E+06  7.8534275947343768E+05
  1.0580028352811136E+06  8.7382934857069500E+04  1.0726840816855100E+06
  1.1578558924711721E+06  8.4031697426857566E+05  1.0726840816855100E+06
  2.7442941845467598E+06  1.1578558924711721E+06  4.9508131777177943E+05
  4.9508131777177943E+05  1.8714637644244256E+04  1.1578558924711721E+06
  6.5482580944333211E+04  3.6754618038321992E+03  1.1578452721814073E+06
  1.1578452721814073E+06  1.1578452721814073E+06  9.9746237159452680E+05
  1.2254411404895145E+06  7.9959933751177948E+02  1.0579931541863286E+06
  8.3024643390649304E+04  1.4389694455126594E+06  5.8862947643384279E+05
  1.2254411404895145E+06  7.9959933751177948E+02  7.7612819858441816E+05
  6.8466094293658170E+04  1.0579931541863286E+06  9.1490768293562083E+04
  1.1479005126289977E+06  5.8862947643384279E+05  1.3657019628622951E+06
  7.6868070703627687E+04  1.2254411404895145E+06  1.7025911008921880E+06
  1.3646524236163944E+06  1.7025911008921880E+06  1.2254411404895145E+06
  1.0525384435552756E+05  1.2254411404895145E+06  8.3021762176174996E+05
  1.1219513540559614E+06  9.1744038463521603E+04  1.1374838002081565E+06
  1.2254411404895145E+06  8.8949347335637338E+05  1.1374838002081565E+06
  2.9104590067603281E+06  1.2254411404895145E+06  5.2360188304796652E+05
  5.2360188304796652E+05  1.9454515031320276E+04  1.2254411404895145E+06
  6.8887620277001886E+04  3.7700461708681673E+03  1.2254298487965914E+06
  1.2254298487965914E+06  1.2254298487965914E+06  1.0579971169321788E+06
  1.1219452632911822E+06  8.8324488963930600E+05  3.3147075446460934E+02
  7.8533552522161731E+05  5.3427280928826505E+04  1.0662422344006707E+06
  4.1172530368099915E+05  8.8324488963930600E+05  3.3147075446460934E+02
  5.7509258950608992E+05  4.3830951444731450E+04  7.8533552522161731E+05
  5.8875326413805939E+04  8.5056705774538999E+05  4.1172530368099915E+05
  1.0190817559084577E+06  4.9465457967894748E+04  8.8324488963930600E+05
  1.2995973638165025E+06  1.0582803260291847E+06  1.2995973638165025E+06
  8.8324488963930600E+05  6.7732018850864362E+04  8.8324488963930600E+05
  5.8907181275754725E+05  8.3021761304068950E+05  5.9314089888039583E+04
  8.4135151362296159E+05  8.8324488963930600E+05  6.4233633145875309E+05
  8.4135151362296159E+05  2.1565811033562967E+06  8.8324488963930600E+05
  3.7373766512734385E+05  3.7373766512734385E+05  1.0979243268643037E+04
  8.8324488963930600E+05  4.5757735108278415E+04  1.7672510056360595E+03
  8.8323625107598153E+05  8.8323625107598153E+05  8.8323625107598153E+05
  7.8533824537172553E+05  8.3021283960428881E+05  5.8906832276525244E+05
  1.4583550961490704E+06  6.9223982368970053E+02  1.2808060262952999E+06
  9.2520082793793990E+04  1.7402252588717598E+06  6.8841743645432964E+05
  1.4583550961490704E+06  6.9223982368970053E+02  9.3861471451748023E+05
  7.6068078164765160E+04  1.2808060262952999E+06  1.0195446932014803E+05
  1.3882195156945388E+06  6.8841743645432964E+05  1.6583750277093314E+06
  8.5659389492780610E+04  1.4583550961490704E+06  2.0949100924662868E+06
  1.6946608508363699E+06  2.0949100924662868E+06  1.4583550961490704E+06
  1.1729161362751812E+05  1.4583550961490704E+06  9.7905400899288012E+05
  1.3557729814852823E+06  1.0251277134259857E+05  1.3742008893908369E+06
  1.4583550961490704E+06  1.0597327355143265E+06  1.3742008893908369E+06
  3.5197788905592002E+06  1.4583550961490704E+06  6.1961134707390482E+05
  6.1961134707390482E+05  2.0097585321058206E+04  1.4583550961490704E+06
  7.8188003997518201E+04  3.5010924997080351E+03  1.4583411787367663E+06
  1.4583411787367663E+06  1.4583411787367663E+06  1.2808106136801497E+06
  1.3557653684139200E+06  9.7904827605253155E+05  1.6152436153152694E+06
  5.1836176478485594E+05  1.3039580539543306E+02  4.7040717589182989E+05
  2.8961413925593475E+04  6.3788570741549355E+05  2.3664016880451798E+05
  5.1836176478485594E+05  1.3039580539543306E+02  3.4405253464068688E+05
  2.3672673695135061E+04  4.7040717589182989E+05  3.1914644889866981E+04
  5.0885676052703522E+05  2.3664016880451798E+05  6.1264059163080307E+05
  2.6813822046000794E+04  5.1836176478485594E+05  7.9360482529822574E+05
  6.5333281880323740E+05  7.9360482529822574E+05  5.1836176478485594E+05
  3.6715606706041450E+04  5.1836176478485594E+05  3.4196359810737276E+05
  4.9621845333218679E+05  3.2258459484146519E+04  5.0272430607502401E+05
  5.1836176478485594E+05  3.7747817952012399E+05  5.0272430607502401E+05
  1.2901873686203810E+06  5.1836176478485594E+05  2.1786199662046842E+05
  2.1786199662046842E+05  5.4198559999825147E+03  5.1836176478485594E+05
  2.5364321613773376E+04  7.6195119641456813E+02  5.1835649099907494E+05
  5.1835649099907494E+05  5.1835649099907494E+05  4.7040871346016985E+05
  4.9621548999877175E+05  3.4196153295271075E+05  5.7535165601694549E+05
  1.9451150326004569E+05  6.8302259574504875E+04  5.8618640381656073E+00
  6.5257457800883938E+04  3.1143212718747172E+03  8.8219051253457452E+04
  2.9572139446275112E+04  6.8302259574504875E+04  5.8618640381656073E+00
  4.7582173161278581E+04  2.5215734505147852E+03  6.5257457800883938E+04
  3.4318924386839562E+03  7.0374457548964492E+04  2.9572139446275112E+04
  8.5768213196654353E+04  2.8833832696382178E+03  6.8302259574504875E+04
  1.1554646330971392E+05  9.7748690175224954E+04  1.1554646330971392E+05
  6.8302259574504875E+04  3.9481565115632657E+03  6.8302259574504875E+04
  4.3830502814853164E+04  6.8465433484982816E+04  3.4985265929568423E+03
  6.9311446478840211E+04  6.8302259574504875E+04  4.9906150096288671E+04
  6.9311446478840211E+04  1.7843181666515616E+05  6.8302259574504875E+04
  2.8219480764080421E+04  2.8219480764080421E+04  4.5584583403815554E+02
  6.8302259574504875E+04  2.8893560757510500E+03  4.4349243290158668E+01
  6.8301496714943787E+04  6.8301496714943787E+04  6.8301496714943787E+04
  6.5257639100902568E+04  6.8464986356133217E+04  4.3830225381676893E+04
  7.6066830365367190E+04  2.3672275150366731E+04  2.5215292299400517E+03
  6.0932670791882936E+02  3.0880651322856507E-06  7.8637358512909566E+02
  7.7171056354724135E+00  1.0443824020906695E+03  1.9176933734079014E+02
  6.0932670791882936E+02  3.0880651322856507E-06  5.6330218469587908E+02
  5.8619654121975957E+00  7.8637358512909566E+02  8.5040283794999993E+00
  8.3312894410587865E+02  1.9176933734079014E+02  1.0891513507133056E+03
  7.1448547971922576E+00  6.0932670791882936E+02  1.8323355839427425E+03
  1.8035470750676579E+03  1.8323355839427425E+03  6.0932670791882936E+02
  9.7833005028318940E+00  6.0932670791882936E+02  3.3147293253937130E+02
  7.9960688785505909E+02  9.1773280944392575E+00  8.0601381273652737E+02
  6.0932670791882936E+02  4.5416792372201803E+02  8.0601381273652737E+02
  2.1123674155456797E+03  6.0932670791882936E+02  2.2733808604791199E+02
  2.2733808604791199E+02  1.8804321537957142E-01  6.0932670791882936E+02
  1.0466372577392635E+01  6.0137736892116819E-04  6.0931630860704718E+02
  6.0931630860704718E+02  6.0931630860704718E+02  7.8637355003962364E+02
  7.9959908534959175E+02  3.3147025418921322E+02  6.9223913461130030E+02
  1.3039549144441506E+02  5.8618348656084978E+00  3.0879339736728838E-06
%FLAG LENNARD_JONES_BCOEF
%FORMAT(3E24.16)
  1.0262905636013911E+03  1.5289737568479335E+01  7.5380123963280526E-04
  7.0009846895416911E+02  1.2635046914416822E+01  4.7267967353739522E+02
  1.5771187695468279E+02  1.0525266764365278E+00  1.1193462606952204E+02
  2.0748627645336164E+01  9.6606358743255623E+02  1.7238330445644298E+01
  6.5265381404619268E+02  1.5409212618085610E+02  9.0111999999794034E+02
  6.2016283284020642E+02  7.5492275141172893E+00  4.2751797832727129E+02
  9.1503441590098689E+01  5.8955904361590126E+02  3.7075305984209069E+02
  1.0262905636013911E+03  1.5289737568479335E+01  7.0009846895416911E+02
  1.5771187695468279E+02  9.6606358743255623E+02  6.2016283284020642E+02
  1.0262905636013911E+03  1.5289737568479335E+01  7.5380123963280526E-04
  1.2635046914416822E+01  1.0525266764365278E+00  1.7238330445644298E+01
  7.5492275141172893E+00  1.5289737568479335E+01  7.5380123963280526E-04
  5.2105984193771690E+02  9.2977334557748499E+00  3.5201791850031668E+02
  8.3111732970940665E+01  4.8603161414426256E+02  3.1798687589071278E+02
  5.2105984193771690E+02  9.2977334557748499E+00  2.6214791586938173E+02
  1.3462218194710906E+02  8.6367019559496083E-01  9.5719795381569043E+01
  1.7583737125320248E+01  1.3175615090277185E+02  7.7961167624316872E+01
  1.3462218194710906E+02  8.6367019559496083E-01  7.1064513823747788E+01
  1.4896549149786404E+01  7.0009846895416911E+02  1.2635046914416822E+01
  4.7267967353739522E+02  1.1193462606952204E+02  6.5265381404619268E+02
  4.2751797832727129E+02  7.0009846895416911E+02  1.2635046914416822E+01
  3.5201791850031668E+02  9.5719795381569043E+01  4.7267967353739522E+02
  1.7379395083591231E+02  1.1598541149228565E+00  1.2334873742928416E+02
  2.2864390701166748E+01  1.6980508962791677E+02  1.0083415996371600E+02
  1.7379395083591231E+02  1.1598541149228565E+00  9.1586738505366895E+01
  1.9376772405971771E+01  1.2334873742928416E+02  2.5195900715540095E+01
  7.7065214324335966E+02  1.3751430523511463E+01  5.2063763414099833E+02
  1.2292299269223140E+02  7.1884508261351971E+02  4.7030541927222657E+02
  7.7065214324335966E+02  1.3751430523511463E+01  3.8771910047841942E+02
  1.0510504836288050E+02  5.2063763414099833E+02  1.3545760129844521E+02
  5.7343999999868936E+02  6.2016283284020642E+02  7.5492275141172893E+00
  4.2751797832727129E+02  9.1503441590098689E+01  5.8955904361590126E+02
  3.7075305984209069E+02  6.2016283284020642E+02  7.5492275141172893E+00
  3.1798687589071278E+02  7.7961167624316872E+01  4.2751797832727129E+02
  1.0083415996371600E+02  4.7030541927222657E+02  3.7075305984209069E+02
  8.6554284778989552E+02  1.6154157734696831E+01  5.8330595730724497E+02
  1.3936428032687704E+02  8.0549064244112151E+02  5.2953686806278654E+02
  8.6554284778989552E+02  1.6154157734696831E+01  4.3445258913868531E+02
  1.1921411774104121E+02  5.8330595730724497E+02  1.5357542723539569E+02
  6.4255924561804011E+02  5.2953686806278654E+02  7.1958634810295291E+02
  1.4601698018157040E+02  9.7447807876871051E-01  1.0363427531283078E+02
  1.9210043087334373E+01  1.4266564680573364E+02  8.4718135851278390E+01
  1.4601698018157040E+02  9.7447807876871051E-01  7.6948702281698857E+01
  1.6279840459216562E+01  1.0363427531283078E+02  2.1168914785252746E+01
  1.1380781545677959E+02  8.4718135851278390E+01  1.2902992311958658E+02
  1.7785550048183161E+01  1.0262905636013911E+03  1.5289737568479335E+01
  7.0009846895416911E+02  1.5771187695468279E+02  9.6606358743255623E+02
  6.2016283284020642E+02  1.0262905636013911E+03  1.5289737568479335E+01
  5.2105984193771690E+02  1.3462218194710906E+02  7.0009846895416911E+02
  1.7379395083591231E+02  7.7065214324335966E+02  6.2016283284020642E+02
  8.6554284778989552E+02  1.4601698018157040E+02  1.0262905636013911E+03
  8.9191125943386965E+02  1.9200399664571187E+01  5.9631319691228157E+02
  1.4802621180434528E+02  8.2384699493207074E+02  5.5008804235188563E+02
  8.9191125943386965E+02  1.9200399664571187E+01  4.4435334334566949E+02
  1.2679743825540800E+02  5.9631319691228157E+02  1.6312062650895274E+02
  6.5720254919899446E+02  5.5008804235188563E+02  7.3458623276139429E+02
  1.3704954156115153E+02  8.9191125943386965E+02  7.4529503298366956E+02
  6.2316594042954523E+02  1.4792386403008088E+01  4.1432415892818500E+02
  1.0562582445307169E+02  5.7260884268393590E+02  3.8650793506550417E+02
  6.2316594042954523E+02  1.4792386403008088E+01  3.0884454909844152E+02
  9.0563754821962945E+01  4.1432415892818500E+02  1.1639661956007670E+02
  4.5678383658703240E+02  3.8650793506550417E+02  5.0988914264380503E+02
  9.7793293781278862E+01  6.2316594042954523E+02  5.1509389685790779E+02
  3.5491828252638982E+02  8.9191125943386965E+02  1.9200399664571187E+01
  5.9631319691228157E+02  1.4802621180434528E+02  8.2384699493207074E+02
  5.5008804235188563E+02  8.9191125943386965E+02  1.9200399664571187E+01
  4.4435334334566949E+02  1.2679743825540800E+02  5.9631319691228157E+02
  1.6312062650895274E+02  6.5720254919899446E+02  5.5008804235188563E+02
  7.3458623276139429E+02  1.3704954156115153E+02  8.9191125943386965E+02
  7.4529503298366956E+02  5.1509389685790779E+02  7.4529503298366956E+02
  1.0262905636013911E+03  1.5289737568479335E+01  7.0009846895416911E+02
  1.5771187695468279E+02  9.6606358743255623E+02  6.2016283284020642E+02
  1.0262905636013911E+03  1.5289737568479335E+01  5.2105984193771690E+02
  1.3462218194710906E+02  7.0009846895416911E+02  1.7379395083591231E+02
  7.7065214324335966E+02  6.2016283284020642E+02  8.6554284778989552E+02
  1.4601698018157040E+02  1.0262905636013911E+03  8.9191125943386965E+02
  6.2316594042954523E+02  8.9191125943386965E+02  1.0262905636013911E+03
  1.9993800240611279E+02  1.3343324880112393E+00  1.4190424949952333E+02
  2.6303910930365628E+01  1.9534909158403914E+02  1.1600277466779289E+02
  1.9993800240611279E+02  1.3343324880112393E+00  1.0536425149194660E+02
  2.2291645648735312E+01  1.4190424949952333E+02  2.8986153048814142E+01
  1.5583466561448594E+02  1.1600277466779289E+02  1.7667797982854435E+02
  2.4353382352558121E+01  1.9993800240611279E+02  1.8765907592621656E+02
  1.3390631543694170E+02  1.8765907592621656E+02  1.9993800240611279E+02
  3.3346578003106210E+01  1.0262905636013911E+03  1.5289737568479335E+01
  7.0009846895416911E+02  1.5771187695468279E+02  9.6606358743255623E+02
  6.2016283284020642E+02  1.0262905636013911E+03  1.5289737568479335E+01
  5.2105984193771690E+02  1.3462218194710906E+02  7.0009846895416911E+02
  1.7379395083591231E+02  7.7065214324335966E+02  7.1712437923733194E+02
  8.6554284778989552E+02  1.4601698018157040E+02  1.0262905636013911E+03
  8.9191125943386965E+02  6.2316594042954523E+02  8.9191125943386965E+02
  1.0262905636013911E+03  1.9993800240611279E+02  1.0262905636013911E+03
  7.8498661601641766E+02  1.0531117969457778E+01  5.3843952997464567E+02
  1.1809553386362082E+02  7.4274592007604735E+02  4.7169720496500810E+02
  7.8498661601641766E+02  1.0531117969457778E+01  4.0061034982516395E+02
  1.0070772054878135E+02  5.3843952997464567E+02  1.3013788056135061E+02
  5.9250627250437367E+02  4.7169720496500810E+02  6.6633351179867634E+02
  1.0933832987512538E+02  7.8498661601641766E+02  6.8953961349546887E+02
  4.8319450261446389E+02  6.8953961349546887E+02  7.8498661601641766E+02
  1.4971469232187530E+02  7.8498661601641766E+02  5.9866137474833999E+02
  7.6156934668505119E+02  1.3471936862355991E+01  5.1474514758862847E+02
  1.2125428051587217E+02  7.1068907566562905E+02  4.6453890561741667E+02
  7.6156934668505119E+02  1.3471936862355991E+01  3.8332004461253678E+02
  1.0366967331499829E+02  5.1474514758862847E+02  1.3361872849103580E+02
  5.6693375722495637E+02  4.6453890561741667E+02  6.3534062026925290E+02
  1.1226284422513162E+02  7.6156934668505119E+02  6.5005706812144115E+02
  4.5193307934108992E+02  6.5005706812144115E+02  7.6156934668505119E+02
  1.5371916876304786E+02  7.6156934668505119E+02  5.8537563986945543E+02
  5.6048914758297826E+02  1.6891733764335504E+02  1.1677681875588151E+00
  1.1969283634399272E+02  2.2367155614943453E+01  1.6478827567020397E+02
  9.8169493410144327E+01  1.6891733764335504E+02  1.1677681875588151E+00
  8.8880850071269094E+01  1.8961151826926539E+01  1.1969283634399272E+02
  2.4647961956597971E+01  1.3145556822416324E+02  9.8169493410144327E+01
  1.4898076737384753E+02  2.0708551449703133E+01  1.6891733764335504E+02
  1.5804519562162815E+02  1.1267860300854495E+02  1.5804519562162815E+02
  1.6891733764335504E+02  2.8355787144955908E+01  1.6891733764335504E+02
  1.2659703333454446E+02  1.2968064083837504E+02  2.4105357743423045E+01
  7.7480488081452643E+02  1.3668426266686090E+01  5.2376956397104971E+02
  1.2329081214654599E+02  7.2314222392111503E+02  4.7254026857495859E+02
  7.7480488081452643E+02  1.3668426266686090E+01  3.9003682345198706E+02
  1.0540810965894686E+02  5.2376956397104971E+02  1.3586292775447367E+02
  5.7686793290248386E+02  4.7254026857495859E+02  6.4649660897939680E+02
  1.1414835978995293E+02  7.7480488081452643E+02  6.6154803383103388E+02
  4.5995909910058896E+02  6.6154803383103388E+02  7.7480488081452643E+02
  1.5630096585998294E+02  7.7480488081452643E+02  5.9550156724170415E+02
  5.7030647108502149E+02  1.3186179505383006E+02  5.8029448670404031E+02
  1.0262905636013911E+03  1.5289737568479335E+01  7.0009846895416911E+02
  1.5771187695468279E+02  9.6606358743255623E+02  6.2016283284020642E+02
  1.0262905636013911E+03  1.5289737568479335E+01  5.2105984193771690E+02
  1.3462218194710906E+02  7.0009846895416911E+02  1.7379395083591231E+02
  7.7065214324335966E+02  6.2016283284020642E+02  8.6554284778989552E+02
  1.4601698018157040E+02  1.0262905636013911E+03  8.9191125943386965E+02
  6.2316594042954523E+02  8.9191125943386965E+02  1.0262905636013911E+03
  1.9993800240611279E+02  1.0262905636013911E+03  7.8498661601641766E+02
  7.6156934668505119E+02  1.6891733764335504E+02  7.7480488081452643E+02
  1.0262905636013911E+03  7.3385143097380080E+02  1.1072239963454585E+01
  5.0027152780996926E+02  1.1306413600321292E+02  6.9035084458299104E+02
  4.4375197682468735E+02  7.3385143097380080E+02  1.1072239963454585E+01
  3.7235033660255345E+02  9.6522479193568486E+01  5.0027152780996926E+02
  1.2459342487879661E+02  5.5070946145652920E+02  4.4375197682468735E+02
  6.1841968133607224E+02  1.0468002806644246E+02  7.3385143097380080E+02
  6.3693082708100576E+02  4.4485427768044099E+02  6.3693082708100576E+02
  7.3385143097380080E+02  1.4333617691171756E+02  7.3385143097380080E+02
  5.6150713030832287E+02  5.4423561030729957E+02  1.2108448536540618E+02
  5.5369942830587343E+02  7.3385143097380080E+02  5.2471928175552239E+02
  7.7480488081452643E+02  1.3668426266686090E+01  5.2376956397104971E+02
  1.2329081214654599E+02  7.2314222392111503E+02  4.7254026857495859E+02
  7.7480488081452643E+02  1.3668426266686090E+01  3.9003682345198706E+02
  1.0540810965894686E+02  5.2376956397104971E+02  1.3586292775447367E+02
  5.7686793290248386E+02  4.7254026857495859E+02  6.4649660897939680E+02
  1.1414835978995293E+02  7.7480488081452643E+02  6.6154803383103388E+02
  4.5995909910058896E+02  6.6154803383103388E+02  7.7480488081452643E+02
  1.5630096585998294E+02  7.7480488081452643E+02  5.9550156724170415E+02
  5.7030647108502149E+02  1.3186179505383006E+02  5.8029448670404031E+02
  7.7480488081452643E+02  5.5369942830587343E+02  5.8029448670404031E+02
  1.9539598133333270E+03  3.4866240046647910E+01  1.3200573349981603E+03
  3.1166667083340519E+02  1.8226049401844643E+03  1.1924418783594035E+03
  1.9539598133333270E+03  3.4866240046647910E+01  9.8304734222654815E+02
  2.6648993645200488E+02  1.3200573349981603E+03  3.4344770421810000E+02
  1.4539357674912385E+03  1.1924418783594035E+03  1.6291850410476975E+03
  2.8855547836396534E+02  1.9539598133333270E+03  1.6663125920218724E+03
  1.1581584089482376E+03  1.6663125920218724E+03  1.9539598133333270E+03
  3.9511299203483537E+02  1.9539598133333270E+03  1.5022775914812157E+03
  1.4374394312036873E+03  3.3330069837721902E+02  1.4626271637269363E+03
  1.9539598133333270E+03  1.3963033334077068E+03  1.4626271637269363E+03
  3.6863999999915745E+03  1.0262905636013911E+03  1.5289737568479335E+01
  7.0009846895416911E+02  1.5771187695468279E+02  9.6606358743255623E+02
  6.2016283284020642E+02  1.0262905636013911E+03  1.5289737568479335E+01
  5.2105984193771690E+02  1.3462218194710906E+02  7.0009846895416911E+02
  1.7379395083591231E+02  7.7065214324335966E+02  6.2016283284020642E+02
  8.6554284778989552E+02  1.4601698018157040E+02  1.0262905636013911E+03
  8.9191125943386965E+02  6.2316594042954523E+02  8.9191125943386965E+02
  1.0262905636013911E+03  1.9993800240611279E+02  1.0262905636013911E+03
  7.8498661601641766E+02  7.6156934668505119E+02  1.6891733764335504E+02
  7.7480488081452643E+02  1.0262905636013911E+03  7.3385143097380080E+02
  7.7480488081452643E+02  1.9539598133333270E+03  1.0262905636013911E+03
  4.7291945715553499E+02  6.6038330779100027E+00  3.2370928629878284E+02
  7.1724609892394611E+01  4.4659403711659530E+02  2.8478288606331228E+02
  4.7291945715553499E+02  6.6038330779100027E+00  2.4087670979167882E+02
  6.1186923946406246E+01  3.2370928629878284E+02  7.9038456494596275E+01
  3.5625879739270903E+02  2.8478288606331228E+02  4.0045001532971878E+02
  6.6405974891783103E+01  4.7291945715553499E+02  4.1373202661800002E+02
  2.8959807727072808E+02  4.1373202661800002E+02  4.7291945715553499E+02
  9.0928314989008157E+01  4.7291945715553499E+02  3.6106893910236755E+02
  3.5200501043766087E+02  7.6862304320216268E+01  3.5810490183932347E+02
  4.7291945715553499E+02  3.3823707069695206E+02  3.5810490183932347E+02
  9.0328091520273779E+02  4.7291945715553499E+02  2.1767823360194595E+02
  4.7291945715553499E+02  6.6038330779100027E+00  3.2370928629878284E+02
  7.1724609892394611E+01  4.4659403711659530E+02  2.8478288606331228E+02
  4.7291945715553499E+02  6.6038330779100027E+00  2.4087670979167882E+02
  6.1186923946406246E+01  3.2370928629878284E+02  7.9038456494596275E+01
  3.5625879739270903E+02  2.8478288606331228E+02  4.0045001532971878E+02
  6.6405974891783103E+01  4.7291945715553499E+02  4.1373202661800002E+02
  2.8959807727072808E+02  4.1373202661800002E+02  4.7291945715553499E+02
  9.0928314989008157E+01  4.7291945715553499E+02  3.6106893910236755E+02
  3.5200501043766087E+02  7.6862304320216268E+01  3.5810490183932347E+02
  4.7291945715553499E+02  3.3823707069695206E+02  3.5810490183932347E+02
  9.0328091520273779E+02  4.7291945715553499E+02  2.1767823360194595E+02
  2.1767823360194595E+02  8.2968943369427961E+01  1.8600968611345620E-01
  6.1638581937372400E+01  9.0670877127317926E+00  8.4623060567379198E+01
  4.5902369999822511E+01  8.2968943369427961E+01  1.8600968611345620E-01
  4.5642625534318427E+01  7.6161993623017548E+00  6.1638581937372400E+01
  9.9916697879653551E+00  6.7505849348261748E+01  4.5902369999822511E+01
  7.7363186854558649E+01  8.3947309005455804E+00  8.2968943369427961E+01
  8.5046503622355772E+01  6.2141505983598513E+01  8.5046503622355772E+01
  8.2968943369427961E+01  1.1494729756120481E+01  8.2968943369427961E+01
  6.0609095388317741E+01  6.6451308276495851E+01  9.8523412133828820E+00
  6.7522958597429792E+01  8.2968943369427961E+01  5.9659359307861131E+01
  6.7522958597429792E+01  1.7115856738723699E+02  8.2968943369427961E+01
  3.7159681725720127E+01  3.7159681725720127E+01  3.1290595750363579E+00
  1.0262905636013911E+03  1.5289737568479335E+01  7.0009846895416911E+02
  1.5771187695468279E+02  9.6606358743255623E+02  6.2016283284020642E+02
  1.0262905636013911E+03  1.5289737568479335E+01  5.2105984193771690E+02
  1.3462218194710906E+02  7.0009846895416911E+02  1.7379395083591231E+02
  7.7065214324335966E+02  6.2016283284020642E+02  8.6554284778989552E+02
  1.4601698018157040E+02  1.0262905636013911E+03  8.9191125943386965E+02
  6.2316594042954523E+02  8.9191125943386965E+02  1.0262905636013911E+03
  1.9993800240611279E+02  1.0262905636013911E+03  7.8498661601641766E+02
  7.6156934668505119E+02  1.6891733764335504E+02  7.7480488081452643E+02
  1.0262905636013911E+03  7.3385143097380080E+02  7.7480488081452643E+02
  1.9539598133333270E+03  1.0262905636013911E+03  4.7291945715553499E+02
  4.7291945715553499E+02  8.2968943369427961E+01  1.0262905636013911E+03
  1.0541017169844176E+02  8.9054465160449847E-01  7.3990677697567548E+01
  1.4489959181632752E+01  1.0192485638204401E+02  6.1860139252869516E+01
  1.0541017169844176E+02  8.9054465160449847E-01  5.4974589920210647E+01
  1.2305008210497819E+01  7.3990677697567548E+01  1.5967518123892862E+01
  8.1307907722044817E+01  6.1860139252869516E+01  9.1941738517507162E+01
  1.3415477156892788E+01  1.0541017169844176E+02  9.6837953981147280E+01
  6.8697857577751890E+01  9.6837953981147280E+01  1.0541017169844176E+02
  1.8369532781315012E+01  1.0541017169844176E+02  7.9402858024437819E+01
  8.0244647359686965E+01  1.5591475351647340E+01  8.1605451988665124E+01
  1.0541017169844176E+02  7.5514235974848077E+01  8.1605451988665124E+01
  2.0615317246307933E+02  1.0541017169844176E+02  4.8115668280688269E+01
  4.8115668280688269E+01  6.6799594151520552E+00  1.0541017169844176E+02
  9.9936647719094847E+00  4.1870872388623724E+01  1.2773094419815409E-02
  3.3168890503730736E+01  3.4811560357310261E+00  4.5365201520374058E+01
  2.1639707100952542E+01  4.1870872388623724E+01  1.2773094419815409E-02
  2.4468352850871753E+01  2.8846003530269613E+00  3.3168890503730736E+01
  3.8361337941581923E+00  3.6188911615286294E+01  2.1639707100952542E+01
  4.2099026065824773E+01  3.2230159306540331E+00  4.1870872388623724E+01
  4.8527418274451449E+01  3.6622166532585709E+01  4.8527418274451449E+01
  4.1870872388623724E+01  4.4132084234089630E+00  4.1870872388623724E+01
  2.9526616121644128E+01  3.5520556677882581E+01  3.8288593436869065E+00
  3.6060268977834653E+01  4.1870872388623724E+01  3.0235807330448356E+01
  3.6060268977834653E+01  9.1755637876960350E+01  4.1870872388623724E+01
  1.8348903071549085E+01  1.8348903071549085E+01  8.2112071671845399E-01
  4.1870872388623724E+01  2.7809991094142861E+00  1.0628820000293854E-01
  1.0262856532953942E+03  1.5289607093913913E+01  7.0009525816488804E+02
  1.5771100174215783E+02  9.6605914536700993E+02  6.2015974028621451E+02
  1.0262856532953942E+03  1.5289607093913913E+01  5.2105744604783797E+02
  1.3462143015603752E+02  7.0009525816488804E+02  1.7379298637689075E+02
  7.7064859970090731E+02  6.2015974028621451E+02  8.6553890885358771E+02
  1.4601616986916792E+02  1.0262856532953942E+03  8.9190733663738922E+02
  6.2316326607002293E+02  8.9190733663738922E+02  1.0262856532953942E+03
  1.9993689286225788E+02  1.0262856532953942E+03  7.8498277723302056E+02
  7.6156583798002464E+02  1.6891640556460700E+02  7.7480130889965142E+02
  1.0262856532953942E+03  7.3384792931212121E+02  7.7480130889965142E+02
  1.9539508288133857E+03  1.0262856532953942E+03  4.7291716346801576E+02
  4.7291716346801576E+02  8.2968409269509607E+01  1.0262856532953942E+03
  1.0540960929757070E+02  4.1870550115868653E+01  1.0262807430089761E+03
  1.0262856532953942E+03  1.5289607093913913E+01  7.0009525816488804E+02
  1.5771100174215783E+02  9.6605914536700993E+02  6.2015974028621451E+02
  1.0262856532953942E+03  1.5289607093913913E+01  5.2105744604783797E+02
  1.3462143015603752E+02  7.0009525816488804E+02  1.7379298637689075E+02
  7.7064859970090731E+02  6.2015974028621451E+02  8.6553890885358771E+02
  1.4601616986916792E+02  1.0262856532953942E+03  8.9190733663738922E+02
  6.2316326607002293E+02  8.9190733663738922E+02  1.0262856532953942E+03
  1.9993689286225788E+02  1.0262856532953942E+03  7.8498277723302056E+02
  7.6156583798002464E+02  1.6891640556460700E+02  7.7480130889965142E+02
  1.0262856532953942E+03  7.3384792931212121E+02  7.7480130889965142E+02
  1.9539508288133857E+03  1.0262856532953942E+03  4.7291716346801576E+02
  4.7291716346801576E+02  8.2968409269509607E+01  1.0262856532953942E+03
  1.0540960929757070E+02  4.1870550115868653E+01  1.0262807430089761E+03
  1.0262807430089761E+03  1.0262856532953942E+03  1.5289607093913913E+01
  7.0009525816488804E+02  1.5771100174215783E+02  9.6605914536700993E+02
  6.2015974028621451E+02  1.0262856532953942E+03  1.5289607093913913E+01
  5.2105744604783797E+02  1.3462143015603752E+02  7.0009525816488804E+02
  1.7379298637689075E+02  7.7064859970090731E+02  6.2015974028621451E+02
  8.6553890885358771E+02  1.4601616986916792E+02  1.0262856532953942E+03
  8.9190733663738922E+02  6.2316326607002293E+02  8.9190733663738922E+02
  1.0262856532953942E+03  1.9993689286225788E+02  1.0262856532953942E+03
  7.8498277723302056E+02  7.6156583798002464E+02  1.6891640556460700E+02
  7.7480130889965142E+02  1.0262856532953942E+03  7.3384792931212121E+02
  7.7480130889965142E+02  1.9539508288133857E+03  1.0262856532953942E+03
  4.7291716346801576E+02  4.7291716346801576E+02  8.2968409269509607E+01
  1.0262856532953942E+03  1.0540960929757070E+02  4.1870550115868653E+01
  1.0262807430089761E+03  1.0262807430089761E+03  1.0262807430089761E+03
  7.0010270624010195E+02  1.2635100559008629E+01  4.7268258111506458E+02
  1.1193526122153793E+02  6.5265782481103827E+02  4.2752052291370723E+02
  7.0010270624010195E+02  1.2635100559008629E+01  3.5202008176215963E+02
  9.5720336880392551E+01  4.7268258111506458E+02  1.2334943734853157E+02
  5.2064083362451515E+02  4.2752052291370723E+02  5.8330955568048228E+02
  1.0363486336606499E+02  7.0010270624010195E+02  5.9631692105952243E+02
  4.1432676865115292E+02  5.9631692105952243E+02  7.0010270624010195E+02
  1.4190505470853952E+02  7.0010270624010195E+02  5.3844276053160729E+02
  5.1474830852419643E+02  1.1969351736935103E+02  5.2377277957081822E+02
  7.0010270624010195E+02  5.0027455887102383E+02  5.2377277957081822E+02
  1.3200654471694822E+03  7.0010270624010195E+02  3.2371123497070909E+02
  3.2371123497070909E+02  6.1638905022992347E+01  7.0010270624010195E+02
  7.3991105336393190E+01  3.3169044373468729E+01  7.0009949543005916E+02
  7.0009949543005916E+02  7.0009949543005916E+02  4.7268548871017185E+02
  7.6156720289826308E+02  1.3471871133167523E+01  5.1474375652658659E+02
  1.2125388695258100E+02  7.1068715026849816E+02  4.6453754483703977E+02
  7.6156720289826308E+02  1.3471871133167523E+01  3.8331900612279583E+02
  1.0366933479558388E+02  5.1474375652658659E+02  1.3361829479561223E+02
  5.6693222128938771E+02  4.6453754483703977E+02  6.3533891608028750E+02
  1.1226247984595868E+02  7.6156720289826308E+02  6.5005538094289079E+02
  4.5193193386629559E+02  6.5005538094289079E+02  7.6156720289826308E+02
  1.5371866982625392E+02  7.6156720289826308E+02  5.8537395702344543E+02
  5.6048762621102446E+02  1.2968022221141166E+02  5.7030492213235573E+02
  7.6156720289826308E+02  5.4423408228289520E+02  5.7030492213235573E+02
  1.4374355368962449E+03  7.6156720289826308E+02  3.5200400649384454E+02
  3.5200400649384454E+02  6.6451059780311866E+01  7.6156720289826308E+02
  8.0244396538382830E+01  3.5520399374743803E+01  7.6156369420146780E+02
  7.6156369420146780E+02  7.6156369420146780E+02  5.1474691745305711E+02
  5.6048610484251174E+02  7.8498308129313182E+02  1.0531058874718564E+01
  5.3843713643035210E+02  1.1809497574880602E+02  7.4274261575500930E+02
  4.7169505322092914E+02  7.8498308129313182E+02  1.0531058874718564E+01
  4.0060856759362144E+02  1.0070724357608846E+02  5.3843713643035210E+02
  1.3013726553488235E+02  5.9250363656806167E+02  4.7169505322092914E+02
  6.6633055655713338E+02  1.0933781314650972E+02  7.8498308129313182E+02
  6.8953658582777223E+02  4.8319239588740396E+02  6.8953658582777223E+02
  7.8498308129313182E+02  1.4971398477617018E+02  7.8498308129313182E+02
  5.9865866062873613E+02  5.8537303411148423E+02  1.2659643620810101E+02
  5.9549891591144387E+02  7.8498308129313182E+02  5.6150460399681197E+02
  5.9549891591144387E+02  1.5022709081628482E+03  7.8498308129313182E+02
  3.6106730636340268E+02  3.6106730636340268E+02  6.0608793138834869E+01
  7.8498308129313182E+02  7.9402487739174930E+01  2.9526457838976469E+01
  7.8497924252615076E+02  7.8497924252615076E+02  7.8497924252615076E+02
  5.3844036697265710E+02  5.8537135127259864E+02  5.9865594652124400E+02
  1.1185389077445234E+03  1.6876308127024050E+01  7.6251569804184021E+02
  1.7233266944059429E+02  1.0522352823492604E+03  6.7636822546896281E+02
  1.1185389077445234E+03  1.6876308127024050E+01  5.6753774496285041E+02
  1.4711982714156375E+02  7.6251569804184021E+02  1.8990564349688236E+02
  8.3939337543384113E+02  6.7636822546896281E+02  9.4259756748590564E+02
  1.5955358888775950E+02  1.1185389077445234E+03  9.7081241497928727E+02
  6.7804864426842084E+02  9.7081241497928727E+02  1.1185389077445234E+03
  2.1847339808888319E+02  1.1185389077445234E+03  8.5585106891985572E+02
  8.2952590321996422E+02  1.8455731171517354E+02  8.4395068766210511E+02
  1.1185389077445234E+03  7.9977896361950002E+02  8.4395068766210511E+02
  2.1282506479165258E+03  1.1185389077445234E+03  5.1554210087816307E+02
  5.1554210087816307E+02  9.0932911500474248E+01  1.1185389077445234E+03
  1.1509902280573721E+02  4.6085440949079889E+01  1.1185335704969837E+03
  1.1185335704969837E+03  1.1185335704969837E+03  7.6252031799533518E+02
  8.2952357419849454E+02  8.5584721830671890E+02  1.2190258922968158E+03
  5.8369694005110489E+02  6.4110985047837676E+00  4.0447861021273661E+02
  8.4393883582901566E+01  5.5761319845275432E+02  3.4709869634618173E+02
  5.8369694005110489E+02  6.4110985047837676E+00  3.0075643966703285E+02
  7.1836493111132370E+01  4.0447861021273661E+02  9.2999631590669495E+01
  4.4482145076024864E+02  3.4709869634618173E+02  5.0146347661614328E+02
  7.8135776864231914E+01  5.8369694005110489E+02  5.2300550487660405E+02
  3.6850057852102185E+02  5.2300550487660405E+02  5.8369694005110489E+02
  1.0698968793395215E+02  5.8369694005110489E+02  4.4272729154153575E+02
  4.3926277733112590E+02  9.0618227541007116E+01  4.4679508143939739E+02
  5.8369694005110489E+02  4.1780074576522867E+02  4.4679508143939739E+02
  1.1278282251136063E+03  5.8369694005110489E+02  2.6757570514395900E+02
  2.6757570514395900E+02  4.1332770167977188E+01  5.8369694005110489E+02
  5.7380546736109956E+01  1.8818153876519677E+01  5.8369397079231533E+02
  5.8369397079231533E+02  5.8369397079231533E+02  4.0448099756922858E+02
  4.3926146572733461E+02  4.4272525901580445E+02  6.3681323452368099E+02
  3.2409290606309889E+02  1.3462034536936602E+02  8.6365588723835152E-01
  9.5718502307907897E+01  1.7583487871885119E+01  1.3175436996611407E+02
  7.7960093282255244E+01  1.3462034536936602E+02  8.6365588723835152E-01
  7.1063553250773623E+01  1.4896337614134611E+01  9.5718502307907897E+01
  1.9376497735857590E+01  1.0510362766690336E+02  7.7960093282255244E+01
  1.1921251009942777E+02  1.6279609688810428E+01  1.3462034536936602E+02
  1.2679574119020732E+02  9.0562549059892831E+01  1.2679574119020732E+02
  1.3462034536936602E+02  2.2291329659636240E+01  1.3462034536936602E+02
  1.0070633940266937E+02  1.0366827138977366E+02  1.8960883475023110E+01
  1.0540668402159781E+02  1.3462034536936602E+02  9.6521163232928927E+01
  1.0540668402159781E+02  2.6648633433025566E+02  1.3462034536936602E+02
  6.1186086481521748E+01  6.1186086481521748E+01  7.6160864021948349E+00
  1.3462034536936602E+02  1.2304835655019721E+01  2.8845546600083951E+00
  1.3461959358820260E+02  1.3461959358820260E+02  1.3461959358820260E+02
  9.5719043799294838E+01  1.0366793287478700E+02  1.0070586243644155E+02
  1.4711782135052022E+02  7.1835498198130963E+01  1.4896126081459048E+01
  1.5289808982020629E+01  7.5378914809622933E-04  1.2635111104682609E+01
  1.0525296295453954E+00  1.7238417610536334E+01  7.5492594079068880E+00
  1.5289808982020629E+01  7.5378914809622933E-04  9.2977804693725652E+00
  8.6367253398299770E-01  1.2635111104682609E+01  1.1598573691638641E+00
  1.3751500057040868E+01  7.5492594079068880E+00  1.6154240939907073E+01
  9.7448081289404942E-01  1.5289808982020629E+01  1.9200504221641133E+01
  1.4792469883137997E+01  1.9200504221641133E+01  1.5289808982020629E+01
  1.3343362317919827E+00  1.5289808982020629E+01  1.0531164740394123E+01
  1.3472004736231089E+01  1.1677715658730987E+00  1.3668495051203765E+01
  1.5289808982020629E+01  1.1072291982278214E+01  1.3668495051203765E+01
  3.4866416346322588E+01  1.5289808982020629E+01  6.6038629892454779E+00
  6.6038629892454779E+00  1.8600965588032264E-01  1.5289808982020629E+01
  8.9054766114877371E-01  1.2773002404144492E-02  1.5289678506721371E+01
  1.5289678506721371E+01  1.5289678506721371E+01  1.2635164749498964E+01
  1.3471939006652821E+01  1.0531105645366676E+01  1.6876387414031328E+01
  6.4111240978809496E+00  8.6365822558133998E-01  7.5377705666583583E-04
%FLAG LENNARD_JONES_14_ACOEF
%FORMAT(3E24.16)
  0.0000000000000000E+00  0.0000000000000000E+00  0.0000000000000000E+00
  3.4585193557583797E+05  1.8132585792182027E+02  9.0657379083893029E+04
  0.0000000000000000E+00  7.7171425248961834E+00  0.0000000000000000E+00
  0.0000000000000000E+00  0.0000000000000000E+00  1.0443826932347731E+03
  4.1064981063939986E+05  1.0696193546964854E+05  1.8454937599915639E+06
  2.1513246459796751E+05  0.0000000000000000E+00  5.7777387625319017E+04
  1.0379499027131431E+04  0.0000000000000000E+00  0.0000000000000000E+00
  4.7728413674400322E+05  0.0000000000000000E+00  1.2715813181284447E+05
  2.5402012569601855E+04  0.0000000000000000E+00  6.7292987991485890E+04
  1.5753255676109696E+05  0.0000000000000000E+00  0.0000000000000000E+00
  1.8132585792182027E+02  7.7171425248961834E+00  1.0443826932347731E+03
  2.5096093691000867E+01  0.0000000000000000E+00  0.0000000000000000E+00
  0.0000000000000000E+00  0.0000000000000000E+00  9.0657379083893029E+04
  0.0000000000000000E+00  4.1064981063939986E+05  5.7777387625319017E+04
  1.2715813181284447E+05  1.8132585792182027E+02  9.0657379083893029E+04
  0.0000000000000000E+00  0.0000000000000000E+00  1.8428152636178453E+04
  0.0000000000000000E+00  8.8220477787614393E+04  8.4261427396507279E+03
  2.0716152484259183E+04  5.8619945853187616E+00  1.8428152636178453E+04
  0.0000000000000000E+00  0.0000000000000000E+00  0.0000000000000000E+00
  0.0000000000000000E+00  0.0000000000000000E+00  4.1064981063939986E+05
  5.7777387625319017E+04  1.2715813181284447E+05  1.8132585792182027E+02
  0.0000000000000000E+00  0.0000000000000000E+00  0.0000000000000000E+00
  9.1569060591146525E+04  8.5040690305836382E+00  2.4676273834289244E+04
  0.0000000000000000E+00  1.1786897545875769E+05  1.1437650860605605E+04
  2.7991654526716422E+04  8.5040690305836382E+00  2.4676273834289244E+04
  3.4319524522739734E+03  0.0000000000000000E+00  4.6677614920515398E+03
  0.0000000000000000E+00  0.0000000000000000E+00  0.0000000000000000E+00
  0.0000000000000000E+00  1.4721947291891237E+06  0.0000000000000000E+00
  4.7402828276215412E+05  0.0000000000000000E+00  3.2758522400582972E+05
  7.0375595529548562E+04  0.0000000000000000E+00  9.4026914729908633E+04
  0.0000000000000000E+00  0.0000000000000000E+00  0.0000000000000000E+00
  0.0000000000000000E+00  0.0000000000000000E+00  0.0000000000000000E+00
  0.0000000000000000E+00  0.0000000000000000E+00  0.0000000000000000E+00
  1.6414234447470799E+05  2.9572633227186700E+04  1.6414234447470799E+05
  3.9794146146660416E+04  0.0000000000000000E+00  0.0000000000000000E+00
  0.0000000000000000E+00  0.0000000000000000E+00  9.0657379083893029E+04
  0.0000000000000000E+00  4.1064981063939986E+05  5.7777387625319017E+04
  1.2715813181284447E+05  1.8132585792182027E+02  9.0657379083893029E+04
  1.8428152636178453E+04  0.0000000000000000E+00  2.4676273834289244E+04
  0.0000000000000000E+00  0.0000000000000000E+00  9.0657379083893029E+04
  0.0000000000000000E+00  0.0000000000000000E+00  2.0732216878765041E+04
  0.0000000000000000E+00  9.9030327412448794E+04  0.0000000000000000E+00
  2.3517693811652804E+04  0.0000000000000000E+00  2.0732216878765041E+04
  2.8834336914344995E+03  0.0000000000000000E+00  3.9217270451529935E+03
  0.0000000000000000E+00  0.0000000000000000E+00  2.0732216878765041E+04
  0.0000000000000000E+00  0.0000000000000000E+00  0.0000000000000000E+00
  7.7334843809820550E+03  0.0000000000000000E+00  0.0000000000000000E+00
  4.8105081501707509E+03  1.0672397743579671E+04  0.0000000000000000E+00
  7.7334843809820550E+03  1.5272934422046555E+03  7.7334843809820550E+03
  2.0475176550345491E+03  0.0000000000000000E+00  1.3878127072063779E+04
  7.7334843809820550E+03  0.0000000000000000E+00  6.5829520058578805E+02
  0.0000000000000000E+00  0.0000000000000000E+00  0.0000000000000000E+00
  0.0000000000000000E+00  4.1064981063939986E+05  5.7777387625319017E+04
  0.0000000000000000E+00  0.0000000000000000E+00  9.0657379083893029E+04
  1.8428152636178453E+04  0.0000000000000000E+00  2.4676273834289244E+04
  3.2758522400582972E+05  0.0000000000000000E+00  0.0000000000000000E+00
  0.0000000000000000E+00  0.0000000000000000E+00  0.0000000000000000E+00
  0.0000000000000000E+00  0.0000000000000000E+00  0.0000000000000000E+00
  0.0000000000000000E+00  0.0000000000000000E+00  5.7777387625319017E+04
  0.0000000000000000E+00  1.8132585792182027E+02  9.0657379083893029E+04
  0.0000000000000000E+00  0.0000000000000000E+00  2.4676273834289244E+04
  0.0000000000000000E+00  0.0000000000000000E+00  0.0000000000000000E+00
  0.0000000000000000E+00  0.0000000000000000E+00  9.0657379083893029E+04
  9.0657379083893029E+04  0.0000000000000000E+00  0.0000000000000000E+00
  0.0000000000000000E+00  0.0000000000000000E+00  4.1064981063939986E+05
  5.7777387625319017E+04  1.2715813181284447E+05  0.0000000000000000E+00
  0.0000000000000000E+00  1.8428152636178453E+04  0.0000000000000000E+00
  2.4676273834289244E+04  3.2758522400582972E+05  1.6414234447470799E+05
  0.0000000000000000E+00  0.0000000000000000E+00  7.7334843809820550E+03
  0.0000000000000000E+00  0.0000000000000000E+00  0.0000000000000000E+00
  0.0000000000000000E+00  0.0000000000000000E+00  3.4585193557583797E+05
  0.0000000000000000E+00  0.0000000000000000E+00  0.0000000000000000E+00
  0.0000000000000000E+00  0.0000000000000000E+00  3.4585193557583797E+05
  0.0000000000000000E+00  0.0000000000000000E+00  9.1569060591146525E+04
  0.0000000000000000E+00  0.0000000000000000E+00  0.0000000000000000E+00
  0.0000000000000000E+00  0.0000000000000000E+00  0.0000000000000000E+00
  0.0000000000000000E+00  0.0000000000000000E+00  0.0000000000000000E+00
  0.0000000000000000E+00  0.0000000000000000E+00  0.0000000000000000E+00
  0.0000000000000000E+00  1.3560015976119600E+05  0.0000000000000000E+00
  3.2202928502797262E+04  9.7833472691112675E+00  2.8388757129176753E+04
  3.9482255530762031E+03  0.0000000000000000E+00  5.3699389647347525E+03
  0.0000000000000000E+00  0.0000000000000000E+00  2.8388757129176753E+04
  4.5116775792169410E+03  0.0000000000000000E+00  0.0000000000000000E+00
  0.0000000000000000E+00  0.0000000000000000E+00  0.0000000000000000E+00
  0.0000000000000000E+00  0.0000000000000000E+00  6.0932734790378890E+02
  3.4585193557583797E+05  0.0000000000000000E+00  0.0000000000000000E+00
  0.0000000000000000E+00  0.0000000000000000E+00  0.0000000000000000E+00
  0.0000000000000000E+00  0.0000000000000000E+00  0.0000000000000000E+00
  9.1569060591146525E+04  0.0000000000000000E+00  0.0000000000000000E+00
  0.0000000000000000E+00  0.0000000000000000E+00  0.0000000000000000E+00
  0.0000000000000000E+00  0.0000000000000000E+00  0.0000000000000000E+00
  0.0000000000000000E+00  0.0000000000000000E+00  0.0000000000000000E+00
  0.0000000000000000E+00  0.0000000000000000E+00  0.0000000000000000E+00
  0.0000000000000000E+00  1.0662483704974744E+06  0.0000000000000000E+00
  3.1277829600784427E+05  0.0000000000000000E+00  0.0000000000000000E+00
  4.3831228882437048E+04  0.0000000000000000E+00  0.0000000000000000E+00
  0.0000000000000000E+00  0.0000000000000000E+00  0.0000000000000000E+00
  4.9465770056657624E+04  0.0000000000000000E+00  0.0000000000000000E+00
  0.0000000000000000E+00  0.0000000000000000E+00  0.0000000000000000E+00
  0.0000000000000000E+00  0.0000000000000000E+00  0.0000000000000000E+00
  0.0000000000000000E+00  0.0000000000000000E+00  3.2000634289627575E+05
  0.0000000000000000E+00  1.4389772424494515E+06  0.0000000000000000E+00
  4.6199280100485496E+05  7.9960714001274539E+02  3.2000634289627575E+05
  6.8466541429545250E+04  0.0000000000000000E+00  9.1491362212111359E+04
  0.0000000000000000E+00  0.0000000000000000E+00  0.0000000000000000E+00
  0.0000000000000000E+00  0.0000000000000000E+00  0.0000000000000000E+00
  0.0000000000000000E+00  0.0000000000000000E+00  0.0000000000000000E+00
  0.0000000000000000E+00  0.0000000000000000E+00  8.3022239522460639E+05
  1.1219574448510488E+06  0.0000000000000000E+00  0.0000000000000000E+00
  2.4790968839406396E+04  0.0000000000000000E+00  0.0000000000000000E+00
  0.0000000000000000E+00  0.0000000000000000E+00  9.1774657311544434E+00
  0.0000000000000000E+00  0.0000000000000000E+00  0.0000000000000000E+00
  0.0000000000000000E+00  0.0000000000000000E+00  0.0000000000000000E+00
  0.0000000000000000E+00  0.0000000000000000E+00  0.0000000000000000E+00
  0.0000000000000000E+00  0.0000000000000000E+00  0.0000000000000000E+00
  0.0000000000000000E+00  0.0000000000000000E+00  0.0000000000000000E+00
  5.9314295252866323E+04  9.1744630789343864E+04  4.8422355994867103E+03
  0.0000000000000000E+00  0.0000000000000000E+00  0.0000000000000000E+00
  0.0000000000000000E+00  1.4589187268345733E+06  0.0000000000000000E+00
  4.6796737017745437E+05  8.0601407626756247E+02  0.0000000000000000E+00
  6.9312568381338948E+04  0.0000000000000000E+00  0.0000000000000000E+00
  0.0000000000000000E+00  0.0000000000000000E+00  0.0000000000000000E+00
  0.0000000000000000E+00  0.0000000000000000E+00  0.0000000000000000E+00
  0.0000000000000000E+00  0.0000000000000000E+00  0.0000000000000000E+00
  0.0000000000000000E+00  0.0000000000000000E+00  0.0000000000000000E+00
  1.1374899790464893E+06  9.2887818229616852E+04  0.0000000000000000E+00
  0.0000000000000000E+00  0.0000000000000000E+00  3.4585193557583797E+05
  0.0000000000000000E+00  0.0000000000000000E+00  0.0000000000000000E+00
  0.0000000000000000E+00  0.0000000000000000E+00  0.0000000000000000E+00
  0.0000000000000000E+00  0.0000000000000000E+00  0.0000000000000000E+00
  0.0000000000000000E+00  0.0000000000000000E+00  0.0000000000000000E+00
  0.0000000000000000E+00  0.0000000000000000E+00  0.0000000000000000E+00
  0.0000000000000000E+00  0.0000000000000000E+00  0.0000000000000000E+00
  0.0000000000000000E+00  0.0000000000000000E+00  0.0000000000000000E+00
  1.2254480396527511E+06  9.2090077615786533E+04  0.0000000000000000E+00
  0.0000000000000000E+00  0.0000000000000000E+00  0.0000000000000000E+00
  2.5123013772753158E+05  0.0000000000000000E+00  0.0000000000000000E+00
  0.0000000000000000E+00  0.0000000000000000E+00  4.5416837581173178E+02
  2.5123013772753158E+05  0.0000000000000000E+00  0.0000000000000000E+00
  6.6890585644011764E+04  0.0000000000000000E+00  0.0000000000000000E+00
  0.0000000000000000E+00  0.0000000000000000E+00  0.0000000000000000E+00
  0.0000000000000000E+00  0.0000000000000000E+00  0.0000000000000000E+00
  0.0000000000000000E+00  0.0000000000000000E+00  0.0000000000000000E+00
  0.0000000000000000E+00  8.8949846815433656E+05  6.7256550736092118E+04
  0.0000000000000000E+00  0.0000000000000000E+00  0.0000000000000000E+00
  0.0000000000000000E+00  0.0000000000000000E+00  3.2438192443218897E+05
  0.0000000000000000E+00  0.0000000000000000E+00  0.0000000000000000E+00
  0.0000000000000000E+00  8.0601407626756247E+02  0.0000000000000000E+00
  0.0000000000000000E+00  0.0000000000000000E+00  0.0000000000000000E+00
  0.0000000000000000E+00  0.0000000000000000E+00  0.0000000000000000E+00
  0.0000000000000000E+00  0.0000000000000000E+00  0.0000000000000000E+00
  0.0000000000000000E+00  0.0000000000000000E+00  0.0000000000000000E+00
  0.0000000000000000E+00  0.0000000000000000E+00  0.0000000000000000E+00
  1.1374899790464893E+06  9.2887818229616852E+04  1.1532325216870131E+06
  1.2420803705921907E+06  0.0000000000000000E+00  1.1532325216870131E+06
  0.0000000000000000E+00  0.0000000000000000E+00  0.0000000000000000E+00
  0.0000000000000000E+00  3.7326949174892521E+06  0.0000000000000000E+00
  1.2018810601137166E+06  0.0000000000000000E+00  8.3058013756440196E+05
  1.7843470197255342E+05  0.0000000000000000E+00  2.3840174112893312E+05
  0.0000000000000000E+00  0.0000000000000000E+00  0.0000000000000000E+00
  0.0000000000000000E+00  0.0000000000000000E+00  0.0000000000000000E+00
  0.0000000000000000E+00  0.0000000000000000E+00  0.0000000000000000E+00
  0.0000000000000000E+00  0.0000000000000000E+00  0.0000000000000000E+00
  0.0000000000000000E+00  0.0000000000000000E+00  0.0000000000000000E+00
  0.0000000000000000E+00  0.0000000000000000E+00  0.0000000000000000E+00
  0.0000000000000000E+00  0.0000000000000000E+00  0.0000000000000000E+00
  3.4585193557583797E+05  0.0000000000000000E+00  0.0000000000000000E+00
  0.0000000000000000E+00  0.0000000000000000E+00  6.0932734790378890E+02
  3.4585193557583797E+05  0.0000000000000000E+00  0.0000000000000000E+00
  9.1569060591146525E+04  0.0000000000000000E+00  0.0000000000000000E+00
  0.0000000000000000E+00  0.0000000000000000E+00  0.0000000000000000E+00
  0.0000000000000000E+00  0.0000000000000000E+00  0.0000000000000000E+00
  0.0000000000000000E+00  0.0000000000000000E+00  0.0000000000000000E+00
  0.0000000000000000E+00  0.0000000000000000E+00  0.0000000000000000E+00
  0.0000000000000000E+00  0.0000000000000000E+00  0.0000000000000000E+00
  0.0000000000000000E+00  0.0000000000000000E+00  0.0000000000000000E+00
  0.0000000000000000E+00  0.0000000000000000E+00  0.0000000000000000E+00
  0.0000000000000000E+00  6.7233311761793937E+05  0.0000000000000000E+00
  1.9977341075752821E+05  2.2733838906756154E+02  1.4719928177781135E+05
  2.8219946682573613E+04  0.0000000000000000E+00  3.7877939261469939E+04
  0.0000000000000000E+00  0.0000000000000000E+00  0.0000000000000000E+00
  0.0000000000000000E+00  0.0000000000000000E+00  0.0000000000000000E+00
  0.0000000000000000E+00  0.0000000000000000E+00  0.0000000000000000E+00
  0.0000000000000000E+00  0.0000000000000000E+00  0.0000000000000000E+00
  0.0000000000000000E+00  0.0000000000000000E+00  0.0000000000000000E+00
  0.0000000000000000E+00  0.0000000000000000E+00  0.0000000000000000E+00
  0.0000000000000000E+00  0.0000000000000000E+00  0.0000000000000000E+00
  0.0000000000000000E+00  0.0000000000000000E+00  1.4719928177781135E+05
  0.0000000000000000E+00  0.0000000000000000E+00  0.0000000000000000E+00
  0.0000000000000000E+00  0.0000000000000000E+00  0.0000000000000000E+00
  0.0000000000000000E+00  0.0000000000000000E+00  0.0000000000000000E+00
  0.0000000000000000E+00  0.0000000000000000E+00  0.0000000000000000E+00
  0.0000000000000000E+00  0.0000000000000000E+00  0.0000000000000000E+00
  0.0000000000000000E+00  0.0000000000000000E+00  0.0000000000000000E+00
  0.0000000000000000E+00  0.0000000000000000E+00  0.0000000000000000E+00
  0.0000000000000000E+00  0.0000000000000000E+00  0.0000000000000000E+00
  0.0000000000000000E+00  0.0000000000000000E+00  0.0000000000000000E+00
  0.0000000000000000E+00  0.0000000000000000E+00  0.0000000000000000E+00
  0.0000000000000000E+00  0.0000000000000000E+00  0.0000000000000000E+00
  0.0000000000000000E+00  0.0000000000000000E+00  0.0000000000000000E+00
  0.0000000000000000E+00  0.0000000000000000E+00  1.8804523059916725E-01
  0.0000000000000000E+00  0.0000000000000000E+00  0.0000000000000000E+00
  0.0000000000000000E+00  0.0000000000000000E+00  0.0000000000000000E+00
  0.0000000000000000E+00  0.0000000000000000E+00  0.0000000000000000E+00
  0.0000000000000000E+00  0.0000000000000000E+00  0.0000000000000000E+00
  0.0000000000000000E+00  0.0000000000000000E+00  0.0000000000000000E+00
  0.0000000000000000E+00  0.0000000000000000E+00  0.0000000000000000E+00
  0.0000000000000000E+00  0.0000000000000000E+00  0.0000000000000000E+00
  0.0000000000000000E+00  0.0000000000000000E+00  0.0000000000000000E+00
  7.1982110326508873E+03  0.0000000000000000E+00  0.0000000000000000E+00
  0.0000000000000000E+00  0.0000000000000000E+00  3.4585193557583797E+05
  0.0000000000000000E+00  0.0000000000000000E+00  0.0000000000000000E+00
  0.0000000000000000E+00  0.0000000000000000E+00  3.4585193557583797E+05
  0.0000000000000000E+00  0.0000000000000000E+00  9.1569060591146525E+04
  0.0000000000000000E+00  0.0000000000000000E+00  0.0000000000000000E+00
  0.0000000000000000E+00  0.0000000000000000E+00  0.0000000000000000E+00
  0.0000000000000000E+00  0.0000000000000000E+00  0.0000000000000000E+00
  0.0000000000000000E+00  0.0000000000000000E+00  0.0000000000000000E+00
  0.0000000000000000E+00  0.0000000000000000E+00  0.0000000000000000E+00
  0.0000000000000000E+00  0.0000000000000000E+00  0.0000000000000000E+00
  0.0000000000000000E+00  0.0000000000000000E+00  0.0000000000000000E+00
  0.0000000000000000E+00  0.0000000000000000E+00  0.0000000000000000E+00
  0.0000000000000000E+00  0.0000000000000000E+00  1.8815349734911098E+04
  0.0000000000000000E+00  0.0000000000000000E+00  0.0000000000000000E+00
  0.0000000000000000E+00  1.0466410599579948E+01  0.0000000000000000E+00
  0.0000000000000000E+00  0.0000000000000000E+00  0.0000000000000000E+00
  0.0000000000000000E+00  0.0000000000000000E+00  0.0000000000000000E+00
  0.0000000000000000E+00  0.0000000000000000E+00  0.0000000000000000E+00
  0.0000000000000000E+00  0.0000000000000000E+00  0.0000000000000000E+00
  0.0000000000000000E+00  0.0000000000000000E+00  0.0000000000000000E+00
  0.0000000000000000E+00  0.0000000000000000E+00  0.0000000000000000E+00
  0.0000000000000000E+00  0.0000000000000000E+00  0.0000000000000000E+00
  0.0000000000000000E+00  7.0325173971672557E+04  0.0000000000000000E+00
  2.9305478275302532E+04  0.0000000000000000E+00  7.0325173971672557E+04
  0.0000000000000000E+00  0.0000000000000000E+00  0.0000000000000000E+00
  0.0000000000000000E+00  0.0000000000000000E+00  0.0000000000000000E+00
  0.0000000000000000E+00  0.0000000000000000E+00  0.0000000000000000E+00
  8.9704524252063163E+02  0.0000000000000000E+00  0.0000000000000000E+00
  6.3093110108367704E+01  0.0000000000000000E+00  0.0000000000000000E+00
  0.0000000000000000E+00  0.0000000000000000E+00  0.0000000000000000E+00
  0.0000000000000000E+00  0.0000000000000000E+00  0.0000000000000000E+00
  0.0000000000000000E+00  0.0000000000000000E+00  0.0000000000000000E+00
  0.0000000000000000E+00  0.0000000000000000E+00  0.0000000000000000E+00
  0.0000000000000000E+00  0.0000000000000000E+00  0.0000000000000000E+00
  0.0000000000000000E+00  0.0000000000000000E+00  0.0000000000000000E+00
  0.0000000000000000E+00  0.0000000000000000E+00  0.0000000000000000E+00
  0.0000000000000000E+00  0.0000000000000000E+00  0.0000000000000000E+00
  0.0000000000000000E+00  0.0000000000000000E+00  0.0000000000000000E+00
  0.0000000000000000E+00  0.0000000000000000E+00  0.0000000000000000E+00
  0.0000000000000000E+00  0.0000000000000000E+00  0.0000000000000000E+00
  0.0000000000000000E+00  0.0000000000000000E+00  0.0000000000000000E+00
  0.0000000000000000E+00  0.0000000000000000E+00  0.0000000000000000E+00
  0.0000000000000000E+00  0.0000000000000000E+00  0.0000000000000000E+00
  0.0000000000000000E+00  0.0000000000000000E+00  0.0000000000000000E+00
  0.0000000000000000E+00  0.0000000000000000E+00  0.0000000000000000E+00
  0.0000000000000000E+00  0.0000000000000000E+00  0.0000000000000000E+00
  0.0000000000000000E+00  0.0000000000000000E+00  0.0000000000000000E+00
  0.0000000000000000E+00  0.0000000000000000E+00  0.0000000000000000E+00
  0.0000000000000000E+00  0.0000000000000000E+00  0.0000000000000000E+00
  0.0000000000000000E+00  0.0000000000000000E+00  0.0000000000000000E+00
  0.0000000000000000E+00  0.0000000000000000E+00  0.0000000000000000E+00
  0.0000000000000000E+00  0.0000000000000000E+00  0.0000000000000000E+00
  0.0000000000000000E+00  0.0000000000000000E+00  0.0000000000000000E+00
  0.0000000000000000E+00  0.0000000000000000E+00  0.0000000000000000E+00
  0.0000000000000000E+00  0.0000000000000000E+00  0.0000000000000000E+00
  0.0000000000000000E+00  0.0000000000000000E+00  0.0000000000000000E+00
  0.0000000000000000E+00  0.0000000000000000E+00  0.0000000000000000E+00
  0.0000000000000000E+00  0.0000000000000000E+00  0.0000000000000000E+00
  0.0000000000000000E+00  0.0000000000000000E+00  0.0000000000000000E+00
  0.0000000000000000E+00  0.0000000000000000E+00  0.0000000000000000E+00
  0.0000000000000000E+00  0.0000000000000000E+00  0.0000000000000000E+00
  0.0000000000000000E+00  0.0000000000000000E+00  0.0000000000000000E+00
  0.0000000000000000E+00  0.0000000000000000E+00  0.0000000000000000E+00
  0.0000000000000000E+00  0.0000000000000000E+00  0.0000000000000000E+00
  0.0000000000000000E+00  0.0000000000000000E+00  0.0000000000000000E+00
  0.0000000000000000E+00  0.0000000000000000E+00  0.0000000000000000E+00
  0.0000000000000000E+00  0.0000000000000000E+00  0.0000000000000000E+00
  0.0000000000000000E+00  0.0000000000000000E+00  0.0000000000000000E+00
  0.0000000000000000E+00  0.0000000000000000E+00  0.0000000000000000E+00
  0.0000000000000000E+00  0.0000000000000000E+00  0.0000000000000000E+00
  0.0000000000000000E+00  0.0000000000000000E+00  0.0000000000000000E+00
  0.0000000000000000E+00  0.0000000000000000E+00  0.0000000000000000E+00
  0.0000000000000000E+00  0.0000000000000000E+00  0.0000000000000000E+00
  0.0000000000000000E+00  0.0000000000000000E+00  0.0000000000000000E+00
  0.0000000000000000E+00  0.0000000000000000E+00  0.0000000000000000E+00
  0.0000000000000000E+00  0.0000000000000000E+00  0.0000000000000000E+00
  0.0000000000000000E+00  0.0000000000000000E+00  0.0000000000000000E+00
  0.0000000000000000E+00  0.0000000000000000E+00  0.0000000000000000E+00
  0.0000000000000000E+00  0.0000000000000000E+00  0.0000000000000000E+00
  0.0000000000000000E+00  0.0000000000000000E+00  0.0000000000000000E+00
  0.0000000000000000E+00  0.0000000000000000E+00  0.0000000000000000E+00
  0.0000000000000000E+00  0.0000000000000000E+00  0.0000000000000000E+00
  0.0000000000000000E+00  0.0000000000000000E+00  0.0000000000000000E+00
  0.0000000000000000E+00  0.0000000000000000E+00  0.0000000000000000E+00
  0.0000000000000000E+00  0.0000000000000000E+00  0.0000000000000000E+00
  0.0000000000000000E+00  0.0000000000000000E+00  0.0000000000000000E+00
  0.0000000000000000E+00  0.0000000000000000E+00  0.0000000000000000E+00
  0.0000000000000000E+00  0.0000000000000000E+00  0.0000000000000000E+00
  0.0000000000000000E+00  0.0000000000000000E+00  0.0000000000000000E+00
  0.0000000000000000E+00  0.0000000000000000E+00  3.4585138460086251E+05
  0.0000000000000000E+00  0.0000000000000000E+00  9.0655730938093780E+04
  0.0000000000000000E+00  0.0000000000000000E+00  0.0000000000000000E+00
  0.0000000000000000E+00  0.0000000000000000E+00  0.0000000000000000E+00
  0.0000000000000000E+00  0.0000000000000000E+00  0.0000000000000000E+00
  0.0000000000000000E+00  0.0000000000000000E+00  0.0000000000000000E+00
  0.0000000000000000E+00  0.0000000000000000E+00  0.0000000000000000E+00
  0.0000000000000000E+00  0.0000000000000000E+00  0.0000000000000000E+00
  0.0000000000000000E+00  0.0000000000000000E+00  0.0000000000000000E+00
  0.0000000000000000E+00  0.0000000000000000E+00  0.0000000000000000E+00
  0.0000000000000000E+00  0.0000000000000000E+00  0.0000000000000000E+00
  0.0000000000000000E+00  0.0000000000000000E+00  0.0000000000000000E+00
  0.0000000000000000E+00  0.0000000000000000E+00  0.0000000000000000E+00
  0.0000000000000000E+00  0.0000000000000000E+00  0.0000000000000000E+00
  0.0000000000000000E+00  0.0000000000000000E+00  0.0000000000000000E+00
  1.2254298487965916E+06  1.2254298487965916E+06  3.2000104572889785E+05
  1.1219452632911825E+06  0.0000000000000000E+00  0.0000000000000000E+00
  0.0000000000000000E+00  0.0000000000000000E+00  0.0000000000000000E+00
  0.0000000000000000E+00  0.0000000000000000E+00  0.0000000000000000E+00
  0.0000000000000000E+00  0.0000000000000000E+00  0.0000000000000000E+00
  0.0000000000000000E+00  0.0000000000000000E+00  0.0000000000000000E+00
  0.0000000000000000E+00  0.0000000000000000E+00  0.0000000000000000E+00
  0.0000000000000000E+00  0.0000000000000000E+00  0.0000000000000000E+00
  0.0000000000000000E+00  0.0000000000000000E+00  0.0000000000000000E+00
  0.0000000000000000E+00  0.0000000000000000E+00  0.0000000000000000E+00
  0.0000000000000000E+00  0.0000000000000000E+00  0.0000000000000000E+00
  0.0000000000000000E+00  0.0000000000000000E+00  0.0000000000000000E+00
  0.0000000000000000E+00  0.0000000000000000E+00  0.0000000000000000E+00
  0.0000000000000000E+00  0.0000000000000000E+00  0.0000000000000000E+00
  8.8323625107598177E+05  0.0000000000000000E+00  0.0000000000000000E+00
  2.3284134258187146E+05  8.3021283960428869E+05  5.8906832276525220E+05
  0.0000000000000000E+00  0.0000000000000000E+00  0.0000000000000000E+00
  0.0000000000000000E+00  0.0000000000000000E+00  0.0000000000000000E+00
  0.0000000000000000E+00  0.0000000000000000E+00  0.0000000000000000E+00
  0.0000000000000000E+00  0.0000000000000000E+00  0.0000000000000000E+00
  0.0000000000000000E+00  0.0000000000000000E+00  0.0000000000000000E+00
  0.0000000000000000E+00  0.0000000000000000E+00  0.0000000000000000E+00
  0.0000000000000000E+00  0.0000000000000000E+00  0.0000000000000000E+00
  0.0000000000000000E+00  0.0000000000000000E+00  0.0000000000000000E+00
  0.0000000000000000E+00  0.0000000000000000E+00  0.0000000000000000E+00
  0.0000000000000000E+00  0.0000000000000000E+00  0.0000000000000000E+00
  0.0000000000000000E+00  0.0000000000000000E+00  0.0000000000000000E+00
  0.0000000000000000E+00  0.0000000000000000E+00  0.0000000000000000E+00
  0.0000000000000000E+00  0.0000000000000000E+00  0.0000000000000000E+00
  0.0000000000000000E+00  0.0000000000000000E+00  0.0000000000000000E+00
  1.3557653684139203E+06  0.0000000000000000E+00  0.0000000000000000E+00
  0.0000000000000000E+00  0.0000000000000000E+00  0.0000000000000000E+00
  0.0000000000000000E+00  0.0000000000000000E+00  0.0000000000000000E+00
  0.0000000000000000E+00  0.0000000000000000E+00  0.0000000000000000E+00
  0.0000000000000000E+00  0.0000000000000000E+00  0.0000000000000000E+00
  0.0000000000000000E+00  0.0000000000000000E+00  0.0000000000000000E+00
  0.0000000000000000E+00  0.0000000000000000E+00  0.0000000000000000E+00
  0.0000000000000000E+00  0.0000000000000000E+00  0.0000000000000000E+00
  0.0000000000000000E+00  0.0000000000000000E+00  0.0000000000000000E+00
  0.0000000000000000E+00  0.0000000000000000E+00  0.0000000000000000E+00
  0.0000000000000000E+00  0.0000000000000000E+00  0.0000000000000000E+00
  0.0000000000000000E+00  0.0000000000000000E+00  0.0000000000000000E+00
  0.0000000000000000E+00  0.0000000000000000E+00  0.0000000000000000E+00
  0.0000000000000000E+00  0.0000000000000000E+00  0.0000000000000000E+00
  0.0000000000000000E+00  0.0000000000000000E+00  0.0000000000000000E+00
  4.9621548999877187E+05  0.0000000000000000E+00  5.7535165601694537E+05
  0.0000000000000000E+00  0.0000000000000000E+00  0.0000000000000000E+00
  0.0000000000000000E+00  0.0000000000000000E+00  0.0000000000000000E+00
  0.0000000000000000E+00  0.0000000000000000E+00  0.0000000000000000E+00
  0.0000000000000000E+00  0.0000000000000000E+00  0.0000000000000000E+00
  0.0000000000000000E+00  0.0000000000000000E+00  0.0000000000000000E+00
  0.0000000000000000E+00  0.0000000000000000E+00  0.0000000000000000E+00
  0.0000000000000000E+00  0.0000000000000000E+00  0.0000000000000000E+00
  0.0000000000000000E+00  0.0000000000000000E+00  0.0000000000000000E+00
  0.0000000000000000E+00  0.0000000000000000E+00  0.0000000000000000E+00
  0.0000000000000000E+00  0.0000000000000000E+00  0.0000000000000000E+00
  0.0000000000000000E+00  0.0000000000000000E+00  0.0000000000000000E+00
  0.0000000000000000E+00  0.0000000000000000E+00  0.0000000000000000E+00
  0.0000000000000000E+00  0.0000000000000000E+00  0.0000000000000000E+00
  6.8301496714943773E+04  6.8301496714943773E+04  6.8301496714943773E+04
  1.8427928677787477E+04  6.8464986356133202E+04  4.3830225381676879E+04
  7.6066830365367219E+04  2.3672275150366720E+04  2.5215292299400508E+03
  0.0000000000000000E+00  0.0000000000000000E+00  0.0000000000000000E+00
  0.0000000000000000E+00  0.0000000000000000E+00  0.0000000000000000E+00
  0.0000000000000000E+00  0.0000000000000000E+00  0.0000000000000000E+00
  0.0000000000000000E+00  0.0000000000000000E+00  0.0000000000000000E+00
  0.0000000000000000E+00  0.0000000000000000E+00  0.0000000000000000E+00
  0.0000000000000000E+00  0.0000000000000000E+00  0.0000000000000000E+00
  0.0000000000000000E+00  0.0000000000000000E+00  0.0000000000000000E+00
  0.0000000000000000E+00  0.0000000000000000E+00  0.0000000000000000E+00
  0.0000000000000000E+00  0.0000000000000000E+00  0.0000000000000000E+00
  0.0000000000000000E+00  0.0000000000000000E+00  0.0000000000000000E+00
  0.0000000000000000E+00  0.0000000000000000E+00  0.0000000000000000E+00
  0.0000000000000000E+00  0.0000000000000000E+00  0.0000000000000000E+00
  0.0000000000000000E+00  0.0000000000000000E+00  0.0000000000000000E+00
  0.0000000000000000E+00  6.0931630860704695E+02  0.0000000000000000E+00
  7.9959908534959186E+02  0.0000000000000000E+00  0.0000000000000000E+00
  0.0000000000000000E+00  0.0000000000000000E+00  0.0000000000000000E+00
%FLAG LENNARD_JONES_14_BCOEF
%FORMAT(3E24.16)
  0.0000000000000000E+00  0.0000000000000000E+00  0.0000000000000000E+00
  2.4873253717142799E+02  3.9441127724938396E+00  6.0218727679648971E+01
  0.0000000000000000E+00  1.0525266764365275E+00  0.0000000000000000E+00
  0.0000000000000000E+00  0.0000000000000000E+00  1.7238330445644298E+01
  2.3340705577310828E+02  1.5409212618085610E+02  9.0111999999794034E+02
  3.6512013422787487E+02  0.0000000000000000E+00  8.9475525545437407E+01
  4.9057228758049980E+01  0.0000000000000000E+00  0.0000000000000000E+00
  6.1792176640348453E+02  0.0000000000000000E+00  1.5082021790864025E+02
  8.7198911906010110E+01  0.0000000000000000E+00  2.0420563040521705E+02
  3.5500147240381631E+02  0.0000000000000000E+00  0.0000000000000000E+00
  3.9441127724938396E+00  1.0525266764365275E+00  1.7238330445644298E+01
  2.7309756545751518E+00  0.0000000000000000E+00  0.0000000000000000E+00
  0.0000000000000000E+00  0.0000000000000000E+00  6.0218727679648971E+01
  0.0000000000000000E+00  2.3340705577310828E+02  8.9475525545437407E+01
  1.5082021790864025E+02  3.9441127724938396E+00  6.0218727679648971E+01
  0.0000000000000000E+00  0.0000000000000000E+00  3.3065612070591797E+01
  0.0000000000000000E+00  1.3175615090277185E+02  4.1614567301766044E+01
  7.4139169075511759E+01  8.6367019559496083E-01  3.3065612070591797E+01
  0.0000000000000000E+00  0.0000000000000000E+00  0.0000000000000000E+00
  0.0000000000000000E+00  0.0000000000000000E+00  2.3340705577310828E+02
  8.9475525545437407E+01  1.5082021790864025E+02  3.9441127724938396E+00
  0.0000000000000000E+00  0.0000000000000000E+00  0.0000000000000000E+00
  1.7379395083591231E+02  1.1598541149228563E+00  4.2661833402390307E+01
  0.0000000000000000E+00  1.6980508962791677E+02  5.4058433191886600E+01
  9.6088520958356156E+01  1.1598541149228563E+00  4.2661833402390307E+01
  1.9376772405971771E+01  0.0000000000000000E+00  2.5195900715540091E+01
  0.0000000000000000E+00  0.0000000000000000E+00  0.0000000000000000E+00
  0.0000000000000000E+00  7.1884508261351971E+02  0.0000000000000000E+00
  4.7365718744829599E+02  0.0000000000000000E+00  1.8619441838027927E+02
  1.0510504836288050E+02  0.0000000000000000E+00  1.3545760129844521E+02
  0.0000000000000000E+00  0.0000000000000000E+00  0.0000000000000000E+00
  0.0000000000000000E+00  0.0000000000000000E+00  0.0000000000000000E+00
  0.0000000000000000E+00  0.0000000000000000E+00  0.0000000000000000E+00
  1.5081190411978849E+02  7.7961167624316872E+01  1.5081190411978849E+02
  1.0083415996371599E+02  0.0000000000000000E+00  0.0000000000000000E+00
  0.0000000000000000E+00  0.0000000000000000E+00  6.0218727679648971E+01
  0.0000000000000000E+00  2.3340705577310828E+02  8.9475525545437407E+01
  1.5082021790864025E+02  3.9441127724938396E+00  6.0218727679648971E+01
  3.3065612070591797E+01  0.0000000000000000E+00  4.2661833402390307E+01
  0.0000000000000000E+00  0.0000000000000000E+00  6.0218727679648971E+01
  0.0000000000000000E+00  0.0000000000000000E+00  3.5843109396649076E+01
  0.0000000000000000E+00  1.4266564680573364E+02  0.0000000000000000E+00
  8.0730505321018910E+01  0.0000000000000000E+00  3.5843109396649076E+01
  1.6279840459216562E+01  0.0000000000000000E+00  2.1168914785252742E+01
  0.0000000000000000E+00  0.0000000000000000E+00  3.5843109396649076E+01
  0.0000000000000000E+00  0.0000000000000000E+00  0.0000000000000000E+00
  5.5618286133184851E+00  0.0000000000000000E+00  0.0000000000000000E+00
  8.1643344010257053E+00  1.3817150744757434E+01  0.0000000000000000E+00
  5.5618286133184851E+00  3.0102107986553075E+00  5.5618286133184851E+00
  3.8860962466741955E+00  0.0000000000000000E+00  1.3867262513747635E+01
  5.5618286133184851E+00  0.0000000000000000E+00  5.1314528180069552E-01
  0.0000000000000000E+00  0.0000000000000000E+00  0.0000000000000000E+00
  0.0000000000000000E+00  2.3340705577310828E+02  8.9475525545437407E+01
  0.0000000000000000E+00  0.0000000000000000E+00  6.0218727679648971E+01
  3.3065612070591797E+01  0.0000000000000000E+00  4.2661833402390307E+01
  1.8619441838027927E+02  0.0000000000000000E+00  0.0000000000000000E+00
  0.0000000000000000E+00  0.0000000000000000E+00  0.0000000000000000E+00
  0.0000000000000000E+00  0.0000000000000000E+00  0.0000000000000000E+00
  0.0000000000000000E+00  0.0000000000000000E+00  8.9475525545437407E+01
  0.0000000000000000E+00  3.9441127724938396E+00  6.0218727679648971E+01
  0.0000000000000000E+00  0.0000000000000000E+00  4.2661833402390307E+01
  0.0000000000000000E+00  0.0000000000000000E+00  0.0000000000000000E+00
  0.0000000000000000E+00  0.0000000000000000E+00  6.0218727679648971E+01
  6.0218727679648971E+01  0.0000000000000000E+00  0.0000000000000000E+00
  0.0000000000000000E+00  0.0000000000000000E+00  2.3340705577310828E+02
  8.9475525545437407E+01  1.5082021790864025E+02  0.0000000000000000E+00
  0.0000000000000000E+00  3.3065612070591797E+01  0.0000000000000000E+00
  4.2661833402390307E+01  1.8619441838027927E+02  1.5081190411978849E+02
  0.0000000000000000E+00  0.0000000000000000E+00  5.5618286133184851E+00
  0.0000000000000000E+00  0.0000000000000000E+00  0.0000000000000000E+00
  0.0000000000000000E+00  0.0000000000000000E+00  2.4873253717142799E+02
  0.0000000000000000E+00  0.0000000000000000E+00  0.0000000000000000E+00
  0.0000000000000000E+00  0.0000000000000000E+00  2.4873253717142799E+02
  0.0000000000000000E+00  0.0000000000000000E+00  1.7379395083591231E+02
  0.0000000000000000E+00  0.0000000000000000E+00  0.0000000000000000E+00
  0.0000000000000000E+00  0.0000000000000000E+00  0.0000000000000000E+00
  0.0000000000000000E+00  0.0000000000000000E+00  0.0000000000000000E+00
  0.0000000000000000E+00  0.0000000000000000E+00  0.0000000000000000E+00
  0.0000000000000000E+00  1.9534909158403914E+02  0.0000000000000000E+00
  1.1054479710758497E+02  1.3343324880112393E+00  4.9080198869528502E+01
  2.2291645648735312E+01  0.0000000000000000E+00  2.8986153048814138E+01
  0.0000000000000000E+00  0.0000000000000000E+00  4.9080198869528502E+01
  2.4353382352558118E+01  0.0000000000000000E+00  0.0000000000000000E+00
  0.0000000000000000E+00  0.0000000000000000E+00  0.0000000000000000E+00
  0.0000000000000000E+00  0.0000000000000000E+00  1.5289737568479339E+01
  2.4873253717142799E+02  0.0000000000000000E+00  0.0000000000000000E+00
  0.0000000000000000E+00  0.0000000000000000E+00  0.0000000000000000E+00
  0.0000000000000000E+00  0.0000000000000000E+00  0.0000000000000000E+00
  1.7379395083591231E+02  0.0000000000000000E+00  0.0000000000000000E+00
  0.0000000000000000E+00  0.0000000000000000E+00  0.0000000000000000E+00
  0.0000000000000000E+00  0.0000000000000000E+00  0.0000000000000000E+00
  0.0000000000000000E+00  0.0000000000000000E+00  0.0000000000000000E+00
  0.0000000000000000E+00  0.0000000000000000E+00  0.0000000000000000E+00
  0.0000000000000000E+00  7.4274592007604747E+02  0.0000000000000000E+00
  4.6713036928586109E+02  0.0000000000000000E+00  0.0000000000000000E+00
  1.0070772054878134E+02  0.0000000000000000E+00  0.0000000000000000E+00
  0.0000000000000000E+00  0.0000000000000000E+00  0.0000000000000000E+00
  1.0933832987512540E+02  0.0000000000000000E+00  0.0000000000000000E+00
  0.0000000000000000E+00  0.0000000000000000E+00  0.0000000000000000E+00
  0.0000000000000000E+00  0.0000000000000000E+00  0.0000000000000000E+00
  0.0000000000000000E+00  0.0000000000000000E+00  1.8402795453596136E+02
  0.0000000000000000E+00  7.1068907566562905E+02  0.0000000000000000E+00
  4.6760549782598781E+02  1.3471936862355989E+01  1.8402795453596136E+02
  1.0366967331499829E+02  0.0000000000000000E+00  1.3361872849103580E+02
  0.0000000000000000E+00  0.0000000000000000E+00  0.0000000000000000E+00
  0.0000000000000000E+00  0.0000000000000000E+00  0.0000000000000000E+00
  0.0000000000000000E+00  0.0000000000000000E+00  0.0000000000000000E+00
  0.0000000000000000E+00  0.0000000000000000E+00  5.8537563986945543E+02
  5.6048914758297826E+02  0.0000000000000000E+00  0.0000000000000000E+00
  4.1443560464273453E+01  0.0000000000000000E+00  0.0000000000000000E+00
  0.0000000000000000E+00  0.0000000000000000E+00  1.1677803226521313E+00
  0.0000000000000000E+00  0.0000000000000000E+00  0.0000000000000000E+00
  0.0000000000000000E+00  0.0000000000000000E+00  0.0000000000000000E+00
  0.0000000000000000E+00  0.0000000000000000E+00  0.0000000000000000E+00
  0.0000000000000000E+00  0.0000000000000000E+00  0.0000000000000000E+00
  0.0000000000000000E+00  0.0000000000000000E+00  0.0000000000000000E+00
  1.2659667526018411E+02  1.2968064083710397E+02  2.4105357743423042E+01
  0.0000000000000000E+00  0.0000000000000000E+00  0.0000000000000000E+00
  0.0000000000000000E+00  7.2314222392111503E+02  0.0000000000000000E+00
  4.7558264257620374E+02  1.3668426266686090E+01  0.0000000000000000E+00
  1.0540810965894686E+02  0.0000000000000000E+00  0.0000000000000000E+00
  0.0000000000000000E+00  0.0000000000000000E+00  0.0000000000000000E+00
  0.0000000000000000E+00  0.0000000000000000E+00  0.0000000000000000E+00
  0.0000000000000000E+00  0.0000000000000000E+00  0.0000000000000000E+00
  0.0000000000000000E+00  0.0000000000000000E+00  0.0000000000000000E+00
  5.7030647108502137E+02  1.3186222677824011E+02  0.0000000000000000E+00
  0.0000000000000000E+00  0.0000000000000000E+00  2.4873253717142799E+02
  0.0000000000000000E+00  0.0000000000000000E+00  0.0000000000000000E+00
  0.0000000000000000E+00  0.0000000000000000E+00  0.0000000000000000E+00
  0.0000000000000000E+00  0.0000000000000000E+00  0.0000000000000000E+00
  0.0000000000000000E+00  0.0000000000000000E+00  0.0000000000000000E+00
  0.0000000000000000E+00  0.0000000000000000E+00  0.0000000000000000E+00
  0.0000000000000000E+00  0.0000000000000000E+00  0.0000000000000000E+00
  0.0000000000000000E+00  0.0000000000000000E+00  0.0000000000000000E+00
  7.6156934668505119E+02  1.6891733764354436E+02  0.0000000000000000E+00
  0.0000000000000000E+00  0.0000000000000000E+00  0.0000000000000000E+00
  1.7781756652535955E+02  0.0000000000000000E+00  0.0000000000000000E+00
  0.0000000000000000E+00  0.0000000000000000E+00  1.1072239963454582E+01
  1.7781756652535955E+02  0.0000000000000000E+00  0.0000000000000000E+00
  1.2459342487879661E+02  0.0000000000000000E+00  0.0000000000000000E+00
  0.0000000000000000E+00  0.0000000000000000E+00  0.0000000000000000E+00
  0.0000000000000000E+00  0.0000000000000000E+00  0.0000000000000000E+00
  0.0000000000000000E+00  0.0000000000000000E+00  0.0000000000000000E+00
  0.0000000000000000E+00  5.4423561030729957E+02  1.2108390072557896E+02
  0.0000000000000000E+00  0.0000000000000000E+00  0.0000000000000000E+00
  0.0000000000000000E+00  0.0000000000000000E+00  1.8723586166920802E+02
  0.0000000000000000E+00  0.0000000000000000E+00  0.0000000000000000E+00
  0.0000000000000000E+00  1.3668426266686090E+01  0.0000000000000000E+00
  0.0000000000000000E+00  0.0000000000000000E+00  0.0000000000000000E+00
  0.0000000000000000E+00  0.0000000000000000E+00  0.0000000000000000E+00
  0.0000000000000000E+00  0.0000000000000000E+00  0.0000000000000000E+00
  0.0000000000000000E+00  0.0000000000000000E+00  0.0000000000000000E+00
  0.0000000000000000E+00  0.0000000000000000E+00  0.0000000000000000E+00
  5.7030647108502137E+02  1.3186222677824011E+02  5.8029448670404020E+02
  7.7480488081452631E+02  0.0000000000000000E+00  5.8029448670404020E+02
  0.0000000000000000E+00  0.0000000000000000E+00  0.0000000000000000E+00
  0.0000000000000000E+00  1.8226049401844643E+03  0.0000000000000000E+00
  1.2009401617634660E+03  0.0000000000000000E+00  4.7208901470251914E+02
  2.6648993645200488E+02  0.0000000000000000E+00  3.4344770421810000E+02
  0.0000000000000000E+00  0.0000000000000000E+00  0.0000000000000000E+00
  0.0000000000000000E+00  0.0000000000000000E+00  0.0000000000000000E+00
  0.0000000000000000E+00  0.0000000000000000E+00  0.0000000000000000E+00
  0.0000000000000000E+00  0.0000000000000000E+00  0.0000000000000000E+00
  0.0000000000000000E+00  0.0000000000000000E+00  0.0000000000000000E+00
  0.0000000000000000E+00  0.0000000000000000E+00  0.0000000000000000E+00
  0.0000000000000000E+00  0.0000000000000000E+00  0.0000000000000000E+00
  2.4873253717142799E+02  0.0000000000000000E+00  0.0000000000000000E+00
  0.0000000000000000E+00  0.0000000000000000E+00  1.5289737568479339E+01
  2.4873253717142799E+02  0.0000000000000000E+00  0.0000000000000000E+00
  1.7379395083591231E+02  0.0000000000000000E+00  0.0000000000000000E+00
  0.0000000000000000E+00  0.0000000000000000E+00  0.0000000000000000E+00
  0.0000000000000000E+00  0.0000000000000000E+00  0.0000000000000000E+00
  0.0000000000000000E+00  0.0000000000000000E+00  0.0000000000000000E+00
  0.0000000000000000E+00  0.0000000000000000E+00  0.0000000000000000E+00
  0.0000000000000000E+00  0.0000000000000000E+00  0.0000000000000000E+00
  0.0000000000000000E+00  0.0000000000000000E+00  0.0000000000000000E+00
  0.0000000000000000E+00  0.0000000000000000E+00  0.0000000000000000E+00
  0.0000000000000000E+00  4.4659403711659530E+02  0.0000000000000000E+00
  2.8268244427804723E+02  6.6038330779100036E+00  1.1474277324446545E+02
  6.1186923946406253E+01  0.0000000000000000E+00  7.9038456494596275E+01
  0.0000000000000000E+00  0.0000000000000000E+00  0.0000000000000000E+00
  0.0000000000000000E+00  0.0000000000000000E+00  0.0000000000000000E+00
  0.0000000000000000E+00  0.0000000000000000E+00  0.0000000000000000E+00
  0.0000000000000000E+00  0.0000000000000000E+00  0.0000000000000000E+00
  0.0000000000000000E+00  0.0000000000000000E+00  0.0000000000000000E+00
  0.0000000000000000E+00  0.0000000000000000E+00  0.0000000000000000E+00
  0.0000000000000000E+00  0.0000000000000000E+00  0.0000000000000000E+00
  0.0000000000000000E+00  0.0000000000000000E+00  1.1474277324446545E+02
  0.0000000000000000E+00  0.0000000000000000E+00  0.0000000000000000E+00
  0.0000000000000000E+00  0.0000000000000000E+00  0.0000000000000000E+00
  0.0000000000000000E+00  0.0000000000000000E+00  0.0000000000000000E+00
  0.0000000000000000E+00  0.0000000000000000E+00  0.0000000000000000E+00
  0.0000000000000000E+00  0.0000000000000000E+00  0.0000000000000000E+00
  0.0000000000000000E+00  0.0000000000000000E+00  0.0000000000000000E+00
  0.0000000000000000E+00  0.0000000000000000E+00  0.0000000000000000E+00
  0.0000000000000000E+00  0.0000000000000000E+00  0.0000000000000000E+00
  0.0000000000000000E+00  0.0000000000000000E+00  0.0000000000000000E+00
  0.0000000000000000E+00  0.0000000000000000E+00  0.0000000000000000E+00
  0.0000000000000000E+00  0.0000000000000000E+00  0.0000000000000000E+00
  0.0000000000000000E+00  0.0000000000000000E+00  0.0000000000000000E+00
  0.0000000000000000E+00  0.0000000000000000E+00  1.8600968611345622E-01
  0.0000000000000000E+00  0.0000000000000000E+00  0.0000000000000000E+00
  0.0000000000000000E+00  0.0000000000000000E+00  0.0000000000000000E+00
  0.0000000000000000E+00  0.0000000000000000E+00  0.0000000000000000E+00
  0.0000000000000000E+00  0.0000000000000000E+00  0.0000000000000000E+00
  0.0000000000000000E+00  0.0000000000000000E+00  0.0000000000000000E+00
  0.0000000000000000E+00  0.0000000000000000E+00  0.0000000000000000E+00
  0.0000000000000000E+00  0.0000000000000000E+00  0.0000000000000000E+00
  0.0000000000000000E+00  0.0000000000000000E+00  0.0000000000000000E+00
  3.7159681725720127E+01  0.0000000000000000E+00  0.0000000000000000E+00
  0.0000000000000000E+00  0.0000000000000000E+00  2.4873253717142799E+02
  0.0000000000000000E+00  0.0000000000000000E+00  0.0000000000000000E+00
  0.0000000000000000E+00  0.0000000000000000E+00  2.4873253717142799E+02
  0.0000000000000000E+00  0.0000000000000000E+00  1.7379395083591231E+02
  0.0000000000000000E+00  0.0000000000000000E+00  0.0000000000000000E+00
  0.0000000000000000E+00  0.0000000000000000E+00  0.0000000000000000E+00
  0.0000000000000000E+00  0.0000000000000000E+00  0.0000000000000000E+00
  0.0000000000000000E+00  0.0000000000000000E+00  0.0000000000000000E+00
  0.0000000000000000E+00  0.0000000000000000E+00  0.0000000000000000E+00
  0.0000000000000000E+00  0.0000000000000000E+00  0.0000000000000000E+00
  0.0000000000000000E+00  0.0000000000000000E+00  0.0000000000000000E+00
  0.0000000000000000E+00  0.0000000000000000E+00  0.0000000000000000E+00
  0.0000000000000000E+00  0.0000000000000000E+00  2.5781595720694892E+01
  0.0000000000000000E+00  0.0000000000000000E+00  0.0000000000000000E+00
  0.0000000000000000E+00  8.9054465160449847E-01  0.0000000000000000E+00
  0.0000000000000000E+00  0.0000000000000000E+00  0.0000000000000000E+00
  0.0000000000000000E+00  0.0000000000000000E+00  0.0000000000000000E+00
  0.0000000000000000E+00  0.0000000000000000E+00  0.0000000000000000E+00
  0.0000000000000000E+00  0.0000000000000000E+00  0.0000000000000000E+00
  0.0000000000000000E+00  0.0000000000000000E+00  0.0000000000000000E+00
  0.0000000000000000E+00  0.0000000000000000E+00  0.0000000000000000E+00
  0.0000000000000000E+00  0.0000000000000000E+00  0.0000000000000000E+00
  0.0000000000000000E+00  1.0541017169844176E+02  0.0000000000000000E+00
  4.8115668280688261E+01  0.0000000000000000E+00  1.0541017169844176E+02
  0.0000000000000000E+00  0.0000000000000000E+00  0.0000000000000000E+00
  0.0000000000000000E+00  0.0000000000000000E+00  0.0000000000000000E+00
  0.0000000000000000E+00  0.0000000000000000E+00  0.0000000000000000E+00
  1.0652147446545751E+01  0.0000000000000000E+00  0.0000000000000000E+00
  3.8361337941581923E+00  0.0000000000000000E+00  0.0000000000000000E+00
  0.0000000000000000E+00  0.0000000000000000E+00  0.0000000000000000E+00
  0.0000000000000000E+00  0.0000000000000000E+00  0.0000000000000000E+00
  0.0000000000000000E+00  0.0000000000000000E+00  0.0000000000000000E+00
  0.0000000000000000E+00  0.0000000000000000E+00  0.0000000000000000E+00
  0.0000000000000000E+00  0.0000000000000000E+00  0.0000000000000000E+00
  0.0000000000000000E+00  0.0000000000000000E+00  0.0000000000000000E+00
  0.0000000000000000E+00  0.0000000000000000E+00  0.0000000000000000E+00
  0.0000000000000000E+00  0.0000000000000000E+00  0.0000000000000000E+00
  0.0000000000000000E+00  0.0000000000000000E+00  0.0000000000000000E+00
  0.0000000000000000E+00  0.0000000000000000E+00  0.0000000000000000E+00
  0.0000000000000000E+00  0.0000000000000000E+00  0.0000000000000000E+00
  0.0000000000000000E+00  0.0000000000000000E+00  0.0000000000000000E+00
  0.0000000000000000E+00  0.0000000000000000E+00  0.0000000000000000E+00
  0.0000000000000000E+00  0.0000000000000000E+00  0.0000000000000000E+00
  0.0000000000000000E+00  0.0000000000000000E+00  0.0000000000000000E+00
  0.0000000000000000E+00  0.0000000000000000E+00  0.0000000000000000E+00
  0.0000000000000000E+00  0.0000000000000000E+00  0.0000000000000000E+00
  0.0000000000000000E+00  0.0000000000000000E+00  0.0000000000000000E+00
  0.0000000000000000E+00  0.0000000000000000E+00  0.0000000000000000E+00
  0.0000000000000000E+00  0.0000000000000000E+00  0.0000000000000000E+00
  0.0000000000000000E+00  0.0000000000000000E+00  0.0000000000000000E+00
  0.0000000000000000E+00  0.0000000000000000E+00  0.0000000000000000E+00
  0.0000000000000000E+00  0.0000000000000000E+00  0.0000000000000000E+00
  0.0000000000000000E+00  0.0000000000000000E+00  0.0000000000000000E+00
  0.0000000000000000E+00  0.0000000000000000E+00  0.0000000000000000E+00
  0.0000000000000000E+00  0.0000000000000000E+00  0.0000000000000000E+00
  0.0000000000000000E+00  0.0000000000000000E+00  0.0000000000000000E+00
  0.0000000000000000E+00  0.0000000000000000E+00  0.0000000000000000E+00
  0.0000000000000000E+00  0.0000000000000000E+00  0.0000000000000000E+00
  0.0000000000000000E+00  0.0000000000000000E+00  0.0000000000000000E+00
  0.0000000000000000E+00  0.0000000000000000E+00  0.0000000000000000E+00
  0.0000000000000000E+00  0.0000000000000000E+00  0.0000000000000000E+00
  0.0000000000000000E+00  0.0000000000000000E+00  0.0000000000000000E+00
  0.0000000000000000E+00  0.0000000000000000E+00  0.0000000000000000E+00
  0.0000000000000000E+00  0.0000000000000000E+00  0.0000000000000000E+00
  0.0000000000000000E+00  0.0000000000000000E+00  0.0000000000000000E+00
  0.0000000000000000E+00  0.0000000000000000E+00  0.0000000000000000E+00
  0.0000000000000000E+00  0.0000000000000000E+00  0.0000000000000000E+00
  0.0000000000000000E+00  0.0000000000000000E+00  0.0000000000000000E+00
  0.0000000000000000E+00  0.0000000000000000E+00  0.0000000000000000E+00
  0.0000000000000000E+00  0.0000000000000000E+00  0.0000000000000000E+00
  0.0000000000000000E+00  0.0000000000000000E+00  0.0000000000000000E+00
  0.0000000000000000E+00  0.0000000000000000E+00  0.0000000000000000E+00
  0.0000000000000000E+00  0.0000000000000000E+00  0.0000000000000000E+00
  0.0000000000000000E+00  0.0000000000000000E+00  0.0000000000000000E+00
  0.0000000000000000E+00  0.0000000000000000E+00  0.0000000000000000E+00
  0.0000000000000000E+00  0.0000000000000000E+00  0.0000000000000000E+00
  0.0000000000000000E+00  0.0000000000000000E+00  0.0000000000000000E+00
  0.0000000000000000E+00  0.0000000000000000E+00  0.0000000000000000E+00
  0.0000000000000000E+00  0.0000000000000000E+00  0.0000000000000000E+00
  0.0000000000000000E+00  0.0000000000000000E+00  0.0000000000000000E+00
  0.0000000000000000E+00  0.0000000000000000E+00  0.0000000000000000E+00
  0.0000000000000000E+00  0.0000000000000000E+00  0.0000000000000000E+00
  0.0000000000000000E+00  0.0000000000000000E+00  0.0000000000000000E+00
  0.0000000000000000E+00  0.0000000000000000E+00  0.0000000000000000E+00
  0.0000000000000000E+00  0.0000000000000000E+00  0.0000000000000000E+00
  0.0000000000000000E+00  0.0000000000000000E+00  0.0000000000000000E+00
  0.0000000000000000E+00  0.0000000000000000E+00  0.0000000000000000E+00
  0.0000000000000000E+00  0.0000000000000000E+00  0.0000000000000000E+00
  0.0000000000000000E+00  0.0000000000000000E+00  0.0000000000000000E+00
  0.0000000000000000E+00  0.0000000000000000E+00  2.4873222714490461E+02
  0.0000000000000000E+00  0.0000000000000000E+00  6.0218180290704161E+01
  0.0000000000000000E+00  0.0000000000000000E+00  0.0000000000000000E+00
  0.0000000000000000E+00  0.0000000000000000E+00  0.0000000000000000E+00
  0.0000000000000000E+00  0.0000000000000000E+00  0.0000000000000000E+00
  0.0000000000000000E+00  0.0000000000000000E+00  0.0000000000000000E+00
  0.0000000000000000E+00  0.0000000000000000E+00  0.0000000000000000E+00
  0.0000000000000000E+00  0.0000000000000000E+00  0.0000000000000000E+00
  0.0000000000000000E+00  0.0000000000000000E+00  0.0000000000000000E+00
  0.0000000000000000E+00  0.0000000000000000E+00  0.0000000000000000E+00
  0.0000000000000000E+00  0.0000000000000000E+00  0.0000000000000000E+00
  0.0000000000000000E+00  0.0000000000000000E+00  0.0000000000000000E+00
  0.0000000000000000E+00  0.0000000000000000E+00  0.0000000000000000E+00
  0.0000000000000000E+00  0.0000000000000000E+00  0.0000000000000000E+00
  0.0000000000000000E+00  0.0000000000000000E+00  0.0000000000000000E+00
  7.6156369420146780E+02  7.6156369420146780E+02  1.8402623617948529E+02
  5.6048610484251174E+02  0.0000000000000000E+00  0.0000000000000000E+00
  0.0000000000000000E+00  0.0000000000000000E+00  0.0000000000000000E+00
  0.0000000000000000E+00  0.0000000000000000E+00  0.0000000000000000E+00
  0.0000000000000000E+00  0.0000000000000000E+00  0.0000000000000000E+00
  0.0000000000000000E+00  0.0000000000000000E+00  0.0000000000000000E+00
  0.0000000000000000E+00  0.0000000000000000E+00  0.0000000000000000E+00
  0.0000000000000000E+00  0.0000000000000000E+00  0.0000000000000000E+00
  0.0000000000000000E+00  0.0000000000000000E+00  0.0000000000000000E+00
  0.0000000000000000E+00  0.0000000000000000E+00  0.0000000000000000E+00
  0.0000000000000000E+00  0.0000000000000000E+00  0.0000000000000000E+00
  0.0000000000000000E+00  0.0000000000000000E+00  0.0000000000000000E+00
  0.0000000000000000E+00  0.0000000000000000E+00  0.0000000000000000E+00
  0.0000000000000000E+00  0.0000000000000000E+00  0.0000000000000000E+00
  7.8497924252615087E+02  0.0000000000000000E+00  0.0000000000000000E+00
  1.9058659302997140E+02  5.8537135127259864E+02  5.9865594652124389E+02
  0.0000000000000000E+00  0.0000000000000000E+00  0.0000000000000000E+00
  0.0000000000000000E+00  0.0000000000000000E+00  0.0000000000000000E+00
  0.0000000000000000E+00  0.0000000000000000E+00  0.0000000000000000E+00
  0.0000000000000000E+00  0.0000000000000000E+00  0.0000000000000000E+00
  0.0000000000000000E+00  0.0000000000000000E+00  0.0000000000000000E+00
  0.0000000000000000E+00  0.0000000000000000E+00  0.0000000000000000E+00
  0.0000000000000000E+00  0.0000000000000000E+00  0.0000000000000000E+00
  0.0000000000000000E+00  0.0000000000000000E+00  0.0000000000000000E+00
  0.0000000000000000E+00  0.0000000000000000E+00  0.0000000000000000E+00
  0.0000000000000000E+00  0.0000000000000000E+00  0.0000000000000000E+00
  0.0000000000000000E+00  0.0000000000000000E+00  0.0000000000000000E+00
  0.0000000000000000E+00  0.0000000000000000E+00  0.0000000000000000E+00
  0.0000000000000000E+00  0.0000000000000000E+00  0.0000000000000000E+00
  0.0000000000000000E+00  0.0000000000000000E+00  0.0000000000000000E+00
  8.2952357419849466E+02  0.0000000000000000E+00  0.0000000000000000E+00
  0.0000000000000000E+00  0.0000000000000000E+00  0.0000000000000000E+00
  0.0000000000000000E+00  0.0000000000000000E+00  0.0000000000000000E+00
  0.0000000000000000E+00  0.0000000000000000E+00  0.0000000000000000E+00
  0.0000000000000000E+00  0.0000000000000000E+00  0.0000000000000000E+00
  0.0000000000000000E+00  0.0000000000000000E+00  0.0000000000000000E+00
  0.0000000000000000E+00  0.0000000000000000E+00  0.0000000000000000E+00
  0.0000000000000000E+00  0.0000000000000000E+00  0.0000000000000000E+00
  0.0000000000000000E+00  0.0000000000000000E+00  0.0000000000000000E+00
  0.0000000000000000E+00  0.0000000000000000E+00  0.0000000000000000E+00
  0.0000000000000000E+00  0.0000000000000000E+00  0.0000000000000000E+00
  0.0000000000000000E+00  0.0000000000000000E+00  0.0000000000000000E+00
  0.0000000000000000E+00  0.0000000000000000E+00  0.0000000000000000E+00
  0.0000000000000000E+00  0.0000000000000000E+00  0.0000000000000000E+00
  0.0000000000000000E+00  0.0000000000000000E+00  0.0000000000000000E+00
  4.3926146572733461E+02  0.0000000000000000E+00  6.3681323452368088E+02
  0.0000000000000000E+00  0.0000000000000000E+00  0.0000000000000000E+00
  0.0000000000000000E+00  0.0000000000000000E+00  0.0000000000000000E+00
  0.0000000000000000E+00  0.0000000000000000E+00  0.0000000000000000E+00
  0.0000000000000000E+00  0.0000000000000000E+00  0.0000000000000000E+00
  0.0000000000000000E+00  0.0000000000000000E+00  0.0000000000000000E+00
  0.0000000000000000E+00  0.0000000000000000E+00  0.0000000000000000E+00
  0.0000000000000000E+00  0.0000000000000000E+00  0.0000000000000000E+00
  0.0000000000000000E+00  0.0000000000000000E+00  0.0000000000000000E+00
  0.0000000000000000E+00  0.0000000000000000E+00  0.0000000000000000E+00
  0.0000000000000000E+00  0.0000000000000000E+00  0.0000000000000000E+00
  0.0000000000000000E+00  0.0000000000000000E+00  0.0000000000000000E+00
  0.0000000000000000E+00  0.0000000000000000E+00  0.0000000000000000E+00
  0.0000000000000000E+00  0.0000000000000000E+00  0.0000000000000000E+00
  1.3461959358820258E+02  1.3461959358820258E+02  1.3461959358820258E+02
  3.3065478029193173E+01  1.0366793287478698E+02  1.0070586243644154E+02
  1.4711782135052025E+02  7.1835498198130949E+01  1.4896126081459046E+01
  0.0000000000000000E+00  0.0000000000000000E+00  0.0000000000000000E+00
  0.0000000000000000E+00  0.0000000000000000E+00  0.0000000000000000E+00
  0.0000000000000000E+00  0.0000000000000000E+00  0.0000000000000000E+00
  0.0000000000000000E+00  0.0000000000000000E+00  0.0000000000000000E+00
  0.0000000000000000E+00  0.0000000000000000E+00  0.0000000000000000E+00
  0.0000000000000000E+00  0.0000000000000000E+00  0.0000000000000000E+00
  0.0000000000000000E+00  0.0000000000000000E+00  0.0000000000000000E+00
  0.0000000000000000E+00  0.0000000000000000E+00  0.0000000000000000E+00
  0.0000000000000000E+00  0.0000000000000000E+00  0.0000000000000000E+00
  0.0000000000000000E+00  0.0000000000000000E+00  0.0000000000000000E+00
  0.0000000000000000E+00  0.0000000000000000E+00  0.0000000000000000E+00
  0.0000000000000000E+00  0.0000000000000000E+00  0.0000000000000000E+00
  0.0000000000000000E+00  0.0000000000000000E+00  0.0000000000000000E+00
  0.0000000000000000E+00  1.5289678506721367E+01  0.0000000000000000E+00
  1.3471939006652823E+01  0.0000000000000000E+00  0.0000000000000000E+00
  0.0000000000000000E+00  0.0000000000000000E+00  0.0000000000000000E+00
%FLAG BONDS_INC_HYDROGEN
%FORMAT(10I8)
       3     141       3      12      93       6      12      96       6      15
      99       6      15     102       6      18     105       6      18     108
       6      21     111       6      21     114       6      24     117       6
      24     120       6      27     123       6      27     126       6      30
     129       6      30     132       6      39     135      10      48     138
      10      57     144      10      60     153       6      60     156       6
      60     159       6      63     147      10      66     150      10      72
     162      10
%FLAG BONDS_WITHOUT_HYDROGEN
%FORMAT(10I8)
       0      12       1       0      15       1       0      18       1       3
      51       2       3      54       2       6      45       4       6      57
       4       9      51       4       9      57       4      12      21       5
      15      24       5      18      27       5      21      30       5      24
      78       7      27      78       7      30      81       7      33      39
       8      33      42       8      33      81       9      36      39       8
      36      45       8      36      51       8      42      48       8      42
      84       9      45      48       8      54      63       8      54      66
       8      60      84       7      63      69       8      66      72       8
      69      75       8      69      87      11      72      75       8      75
      90      12
%FLAG ANGLES_INC_HYDROGEN
%FORMAT(10I8)
      51       3     141       3      54       3     141       3       0      12
      93       6       0      12      96       6      21      12      93       7
      21      12      96       7      93      12      96       8       0      15
      99       6       0      15     102       6      24      15      99       7
      24      15     102       7      99      15     102       8       0      18
     105       6       0      18     108       6      27      18     105       7
      27      18     108       7     105      18     108       8      12      21
     111       7      12      21     114       7      30      21     111       7
      30      21     114       7     111      21     114       8      15      24
     117       7      15      24     120       7      78      24     117      11
      78      24     120      11     117      24     120       8      18      27
     123       7      18      27     126       7      78      27     123      11
      78      27     126      11     123      27     126       8      21      30
     129       7      21      30     132       7      81      30     129      11
      81      30     132      11     129      30     132       8      33      39
     135      14      36      39     135      14      42      48     138      14
      45      48     138      14       6      57     144      19       9      57
     144      19      84      60     153      11      84      60     156      11
      84      60     159      11     153      60     156       8     153      60
     159       8     156      60     159       8      54      63     147      14
      69      63     147      14      54      66     150      14      72      66
     150      14      66      72     162      14      75      72     162      14
%FLAG ANGLES_WITHOUT_HYDROGEN
%FORMAT(10I8)
      12       0      15       1      12       0      18       1      15       0
      18       1      51       3      54       2      45       6      57       4
      51       9      57       4       0      12      21       5       0      15
      24       5       0      18      27       5      12      21      30       9
      15      24      78      10      18      27      78      10      21      30
      81      10      39      33      42      12      39      33      81      13
      42      33      81      13      39      36      45      12      39      36
      51      12      45      36      51      12      33      39      36      12
      33      42      48      12      33      42      84      13      48      42
      84      13       6      45      36      15       6      45      48      15
      36      45      48      12      42      48      45      12       3      51
       9      16       3      51      36      17       9      51      36      15
       3      54      63      17       3      54      66      17      63      54
      66      12       6      57       9      18      54      63      69      12
      54      66      72      12      63      69      75      12      63      69
      87      20      75      69      87      20      66      72      75      12
      69      75      72      12      69      75      90      21      72      75
      90      21      24      78      27      22      30      81      33      23
      42      84      60      23
%FLAG DIHEDRALS_INC_HYDROGEN
%FORMAT(10I8)
       0      12     -21     111       4       0      12     -21     111       5
       0      12      21     111       6       0      12     -21     114       7
       0      12     -21     114       8       0      12      21     114       9
       0      15     -24     117      11       0      15     -24     117      12
       0      15      24     117      13       0      15     -24     120      14
       0      15     -24     120      15       0      15      24     120      16
       0      18     -27     123      18       0      18     -27     123      19
       0      18      27     123      20       0      18     -27     126      21
       0      18     -27     126      22       0      18      27     126      23
       3      54      63     147      28       3      54      66     150      30
       6      45      48     138      34       9      51       3     141      37
      12       0     -15      99      44      12       0     -15      99      45
      12       0      15      99      46      12       0     -15     102      47
      12       0     -15     102      48      12       0      15     102      49
      12       0     -18     105      53      12       0     -18     105      54
      12       0      18     105      55      12       0     -18     108      56
      12       0     -18     108      57      12       0      18     108      58
      12      21     -30     129      62      12      21     -30     129      63
      12      21      30     129      64      12      21     -30     132      65
      12      21     -30     132      66      12      21      30     132      67
      15       0     -12      93      71      15       0     -12      93      72
      15       0      12      93      73      15       0     -12      96      74
      15       0     -12      96      75      15       0      12      96      76
      15       0     -18     105      80      15       0     -18     105      81
      15       0      18     105      82      15       0     -18     108      83
      15       0     -18     108      84      15       0      18     108      85
      18       0     -12      93      92      18       0     -12      93      93
      18       0      12      93      94      18       0     -12      96      95
      18       0     -12      96      96      18       0      12      96      97
      18       0     -15      99     101      18       0     -15      99     102
      18       0      15      99     103      18       0     -15     102     104
      18       0     -15     102     105      18       0      15     102     106
      24      78     -27     123     111      24      78     -27     123     112
      24      78      27     123     113      24      78     -27     126     114
      24      78     -27     126     115      24      78      27     126     116
      27      78     -24     117     117      27      78     -24     117     118
      27      78      24     117     119      27      78     -24     120     120
      27      78     -24     120     121      27      78      24     120     122
      30      21     -12      93     123      30      21     -12      93     124
      30      21      12      93     125      30      21     -12      96     126
      30      21     -12      96     127      30      21      12      96     128
      33      42      48     138     134      33      81      30     129     136
      33      81      30     132     137      36      45      48     138     142
      36      51      -3     141     144      36      51      -3     141     145
      36      51       3     141     146      42      33      39     135     151
      42      84      60     153     152      42      84      60     156     153
      42      84      60     159     154      45       6      57     144     155
      45      36      39     135     156      51       9      57     144     164
      51      36      39     135     165      54      66      72     162     169
      63      54      -3     141     170      63      54      -3     141     171
      63      54       3     141     172      63      54      66     150     174
      66      54      -3     141     177      66      54      -3     141     178
      66      54       3     141     179      66      54      63     147     181
      69      75      72     162     184      75      69      63     147     186
      75      72      66     150     187      78      24     -15      99     188
      78      24     -15      99     189      78      24      15      99     190
      78      24     -15     102     191      78      24     -15     102     192
      78      24      15     102     193      78      27     -18     105     194
      78      27     -18     105     195      78      27      18     105     196
      78      27     -18     108     197      78      27     -18     108     198
      78      27      18     108     199      81      30     -21     111     200
      81      30     -21     111     201      81      30      21     111     202
      81      30     -21     114     203      81      30     -21     114     204
      81      30      21     114     205      81      33      39     135     206
      84      42      48     138     208      87      69      63     147     209
      90      75      72     162     211      93      12     -21     111     212
      93      12     -21     111     213      93      12      21     111     214
      93      12     -21     114     215      93      12     -21     114     216
      93      12      21     114     217      96      12     -21     111     218
      96      12     -21     111     219      96      12      21     111     220
      96      12     -21     114     221      96      12     -21     114     222
      96      12      21     114     223      99      15     -24     117     224
      99      15     -24     117     225      99      15      24     117     226
      99      15     -24     120     227      99      15     -24     120     228
      99      15      24     120     229     102      15     -24     117     230
     102      15     -24     117     231     102      15      24     117     232
     102      15     -24     120     233     102      15     -24     120     234
     102      15      24     120     235     105      18     -27     123     236
     105      18     -27     123     237     105      18      27     123     238
     105      18     -27     126     239     105      18     -27     126     240
     105      18      27     126     241     108      18     -27     123     242
     108      18     -27     123     243     108      18      27     123     244
     108      18     -27     126     245     108      18     -27     126     246
     108      18      27     126     247     111      21     -30     129     248
     111      21     -30     129     249     111      21      30     129     250
     111      21     -30     132     251     111      21     -30     132     252
     111      21      30     132     253     114      21     -30     129     254
     114      21     -30     129     255     114      21      30     129     256
     114      21     -30     132     257     114      21     -30     132     258
     114      21      30     132     259     150      66      72     162     260
%FLAG DIHEDRALS_WITHOUT_HYDROGEN
%FORMAT(10I8)
       0      12     -21      30       1       0      12     -21      30       2
       0      12      21      30       3       0      15      24      78      10
       0      18     -27      78      17       3      51       9      57      24
       3      51      36      39      25       3      51      36      45      26
       3      54      63      69      27       3      54      66      72      29
       6      45      36      39      31       6      45      36      51      32
       6      45      48      42      33       6      57      -9      51      35
       9      51       3      54      36       9      51      36      39      38
       9      51      36      45      39       9      57      -6      45      40
      12       0     -15      24      41      12       0     -15      24      42
      12       0      15      24      43      12       0     -18      27      50
      12       0     -18      27      51      12       0      18      27      52
      12      21     -30      81      59      12      21     -30      81      60
      12      21      30      81      61      15       0     -12      21      68
      15       0     -12      21      69      15       0      12      21      70
      15       0     -18      27      77      15       0     -18      27      78
      15       0      18      27      79      15      24     -78      27      86
      15      24     -78      27      87      15      24     -78      27      88
      18       0     -12      21      89      18       0     -12      21      90
      18       0      12      21      91      18       0     -15      24      98
      18       0     -15      24      99      18       0      15      24     100
      18      27     -78      24     107      18      27     -78      24     108
      18      27     -78      24     109      21      30      81      33     110
      30      81      33      39     129      30      81      33      42     130
      33      39      36      45     131      33      39      36      51     132
      33      42     -48      45     133      33      42      84      60     135
      36      39      33      42     138      36      39      33      81     139
      36      45       6      57     140      36      45     -48      42     141
      36      51       3      54     143      36      51      -9      57     147
      39      33      42      48     148      39      33      42      84     149
      39      36     -45      48     150      45      48      42      84     157
      48      42      33      81     158      48      42      84      60     159
      48      45       6      57     160      48      45      36      51     161
      51       3      54      63     162      51       3      54      66     163
      54      63      69      75     166      54      63      69      87     167
      54      66     -72      75     168      63      54      66      72     173
      63      69     -75      72     175      63      69      75      90     176
      66      54      63      69     180      66      72     -75      69     182
      66      72      75      90     183      72      75      69      87     185
      81      33      42      84     207      87      69      75      90     210
%FLAG EXCLUDED_ATOMS_LIST
%FORMAT(10I8)
       5       6       7       8       9      10      11      27      32      33
      34      35      36      37      38      39      40      41      42      43
       4      13      14      16      18      19      20      22      23      24
      25      48      50      51       4      13      14      15      16      17
      18      20      47      49      13      14      16      18      19      20
      48      49       6       7       8       9      10      11      28      32
      33      34      35      36      37      38      39      44      45       7
       8       9      10      27      32      33      34      35      36      37
      40      41       8       9      10      27      32      33      34      35
      36      37      42      43      11      12      28      32      33      38
      39      44      45      10      27      34      35      40      41      42
      43      27      36      37      40      41      42      43      12      14
      15      28      32      33      38      39      44      45      13      14
      15      16      17      18      21      28      29      44      45      46
      47      14      15      16      17      18      19      20      28      46
      47      48      15      16      17      18      28      29      46      16
      17      21      28      29      46      47      52      53      54      17
      18      20      29      46      47      49      18      20      21      28
      29      47      19      20      22      23      46      48      49      22
      23      24      25      26      30      48      50      51      55      49
      29      52      53      54      23      24      25      26      30      31
      48      50      51      24      25      26      31      48      50      51
      55      25      26      30      31      50      55      26      30      31
      51      55      30      31      50      51      55      34      35      36
      37      40      41      42      43      29      38      39      44      45
      46      47      52      53      54      31      50      55      33      38
      39      38      39      35      40      41      40      41      37      42
      43      42      43      39      44      45      44      45      41       0
      43       0      45       0       0       0       0       0       0      55
      53      54      54       0       0
%FLAG HBOND_ACOEF
%FORMAT(5E16.8)

%FLAG HBOND_BCOEF
%FORMAT(5E16.8)

%FLAG HBCUT
%FORMAT(5E16.8)

%FLAG AMBER_ATOM_TYPE
%FORMAT(20a4)
NR  NC=CNPYDNPYDCR  CR  CR  CR  CR  CR  CR  CB  CB  CB  CB  CB  CB  CB  CB  CB  
CR  CB  CB  CB  CB  CB  OR  OR  OR  CLMMF   HCMMHCMMHCMMHCMMHCMMHCMMHCMMHCMMHCMM
HCMMHCMMHCMMHCMMHCMMHCMMHCMMHNCOHCMMHCMMHCMMHCMMHCMMHCMMHCMM
%FLAG TREE_CHAIN_CLASSIFICATION
%FORMAT(20a4)
BLA BLA BLA BLA BLA BLA BLA BLA BLA BLA BLA BLA BLA BLA BLA BLA BLA BLA BLA BLA 
BLA BLA BLA BLA BLA BLA BLA BLA BLA BLA BLA BLA BLA BLA BLA BLA BLA BLA BLA BLA 
BLA BLA BLA BLA BLA BLA BLA BLA BLA BLA BLA BLA BLA BLA BLA 
%FLAG JOIN_ARRAY
%FORMAT(10I8)
       0       0       0       0       0       0       0       0       0       0
       0       0       0       0       0       0       0       0       0       0
       0       0       0       0       0       0       0       0       0       0
       0       0       0       0       0       0       0       0       0       0
       0       0       0       0       0       0       0       0       0       0
       0       0       0       0       0
%FLAG IROTAT
%FORMAT(10I8)
       0       0       0       0       0       0       0       0       0       0
       0       0       0       0       0       0       0       0       0       0
       0       0       0       0       0       0       0       0       0       0
       0       0       0       0       0       0       0       0       0       0
       0       0       0       0       0       0       0       0       0       0
       0       0       0       0       0
%FLAG RADIUS_SET
%FORMAT(1a80)
H(N)-modified Bondi radii (mbondi2)                                             
%FLAG RADII
%FORMAT(5E16.8)
  1.55000000E+00  1.55000000E+00  1.55000000E+00  1.55000000E+00  1.70000000E+00
  1.70000000E+00  1.70000000E+00  1.70000000E+00  1.70000000E+00  1.70000000E+00
  1.70000000E+00  1.70000000E+00  1.70000000E+00  1.70000000E+00  1.70000000E+00
  1.70000000E+00  1.70000000E+00  1.70000000E+00  1.70000000E+00  1.70000000E+00
  1.70000000E+00  1.70000000E+00  1.70000000E+00  1.70000000E+00  1.70000000E+00
  1.70000000E+00  1.50000000E+00  1.50000000E+00  1.50000000E+00  1.70000000E+00
  1.50000000E+00  1.20000000E+00  1.20000000E+00  1.20000000E+00  1.20000000E+00
  1.20000000E+00  1.20000000E+00  1.20000000E+00  1.20000000E+00  1.20000000E+00
  1.20000000E+00  1.20000000E+00  1.20000000E+00  1.20000000E+00  1.20000000E+00
  1.20000000E+00  1.20000000E+00  1.30000000E+00  1.20000000E+00  1.20000000E+00
  1.20000000E+00  1.20000000E+00  1.20000000E+00  1.20000000E+00  1.20000000E+00
%FLAG SCREEN
%FORMAT(5E16.8)
  7.90000000E-01  7.90000000E-01  7.90000000E-01  7.90000000E-01  7.20000000E-01
  7.20000000E-01  7.20000000E-01  7.20000000E-01  7.20000000E-01  7.20000000E-01
  7.20000000E-01  7.20000000E-01  7.20000000E-01  7.20000000E-01  7.20000000E-01
  7.20000000E-01  7.20000000E-01  7.20000000E-01  7.20000000E-01  7.20000000E-01
  7.20000000E-01  7.20000000E-01  7.20000000E-01  7.20000000E-01  7.20000000E-01
  7.20000000E-01  8.50000000E-01  8.50000000E-01  8.50000000E-01  8.00000000E-01
  8.80000000E-01  8.50000000E-01  8.50000000E-01  8.50000000E-01  8.50000000E-01
  8.50000000E-01  8.50000000E-01  8.50000000E-01  8.50000000E-01  8.50000000E-01
  8.50000000E-01  8.50000000E-01  8.50000000E-01  8.50000000E-01  8.50000000E-01
  8.50000000E-01  8.50000000E-01  8.50000000E-01  8.50000000E-01  8.50000000E-01
  8.50000000E-01  8.50000000E-01  8.50000000E-01  8.50000000E-01  8.50000000E-01
%FLAG IPOL
%FORMAT(1I8)
       0
