;  ----
; Built RTF for ligand_corr_1.mol2
;    by user SwissParam     Mon 11 May 2026 05:12:18 CEST
; ---- 
;

[ atomtypes ] 
; name at.num  mass   charge  ptype    sigma            epsilon 
NR      7   14.0067  0.0  A         0.329632    0.836800  
NC=C    7   14.0067  0.0  A         0.329632    0.836800  
NPYD    7   14.0067  0.0  A         0.329632    0.836800  
CR      6   12.0110  0.0  A         0.358141    0.234304  
CB      6   12.0110  0.0  A         0.355005    0.292880  
OR      8   15.9994  0.0  A         0.315378    0.636386  
CLMM   17   35.4527  0.0  A         0.331414    0.962320  
F       9   18.9984  0.0  A         0.290433    0.564840  
HCMM    1    1.0079  0.0  A         0.235197    0.092048  
HNCO    1    1.0079  0.0  A         0.040001    0.192464  

[ pairtypes ] 
;  i     j    func     sigma1-4       epsilon1-4 ; THESE ARE 1-4 INTERACTIONS
CR       NR     1      0.334087    0.187114 
CR       NC=C   1      0.334087    0.187114 
CR       NPYD   1      0.334087    0.187114 
CR       CR     1      0.338541    0.041840 
CR       CB     1      0.346773    0.110698 
CR       OR     1      0.326960    0.163176 
CR       CLMM   1      0.334978    0.200658 
CR       F      1      0.314487    0.153730 
CR       HCMM   1      0.286869    0.062059 
CR       HNCO   1      0.189271    0.089737 


[ moleculetype ]
; Name nrexcl 
LIG1 3

[ atoms ] 
; nr type resnr resid atom cgnr charge mass
   1 NR   1 LIG1 N       1 -0.8100  14.0067 
   2 NC=C 1 LIG1 N1      2 -0.6000  14.0067 
   3 NPYD 1 LIG1 N2      3 -0.6200  14.0067 
   4 NPYD 1 LIG1 N3      4 -0.6200  14.0067 
   5 CR   1 LIG1 C       5  0.2700  12.0110 
   6 CR   1 LIG1 C1      6  0.2700  12.0110 
   7 CR   1 LIG1 C2      7  0.2700  12.0110 
   8 CR   1 LIG1 C3      8  0.0000  12.0110 
   9 CR   1 LIG1 C4      9  0.2800  12.0110 
  10 CR   1 LIG1 C5     10  0.2800  12.0110 
  11 CR   1 LIG1 C6     11  0.2800  12.0110 
  12 CB   1 LIG1 C7     12  0.0825  12.0110 
  13 CB   1 LIG1 C8     13  0.0000  12.0110 
  14 CB   1 LIG1 C9     14 -0.1500  12.0110 
  15 CB   1 LIG1 C10    15  0.0825  12.0110 
  16 CB   1 LIG1 C11    16  0.3100  12.0110 
  17 CB   1 LIG1 C12    17 -0.1500  12.0110 
  18 CB   1 LIG1 C13    18  0.4100  12.0110 
  19 CB   1 LIG1 C14    19  0.1000  12.0110 
  20 CB   1 LIG1 C15    20  0.4700  12.0110 
  21 CR   1 LIG1 C16    21  0.2800  12.0110 
  22 CB   1 LIG1 C17    22 -0.1500  12.0110 
  23 CB   1 LIG1 C18    23 -0.1500  12.0110 
  24 CB   1 LIG1 C19    24  0.1770  12.0110 
  25 CB   1 LIG1 C20    25 -0.1500  12.0110 
  26 CB   1 LIG1 C21    26  0.1900  12.0110 
  27 OR   1 LIG1 O      27 -0.5600  15.9994 
  28 OR   1 LIG1 O1     28 -0.3625  15.9994 
  29 OR   1 LIG1 O2     29 -0.3625  15.9994 
  30 CLMM 1 LIG1 CL     30 -0.1770  35.4527 
  31 F    1 LIG1 F      31 -0.1900  18.9984 
  32 HCMM 1 LIG1 H      32  0.0000   1.0079 
  33 HCMM 1 LIG1 H1     33  0.0000   1.0079 
  34 HCMM 1 LIG1 H2     34  0.0000   1.0079 
  35 HCMM 1 LIG1 H3     35  0.0000   1.0079 
  36 HCMM 1 LIG1 H4     36  0.0000   1.0079 
  37 HCMM 1 LIG1 H5     37  0.0000   1.0079 
  38 HCMM 1 LIG1 H6     38  0.0000   1.0079 
  39 HCMM 1 LIG1 H7     39  0.0000   1.0079 
  40 HCMM 1 LIG1 H8     40  0.0000   1.0079 
  41 HCMM 1 LIG1 H9     41  0.0000   1.0079 
  42 HCMM 1 LIG1 H10    42  0.0000   1.0079 
  43 HCMM 1 LIG1 H11    43  0.0000   1.0079 
  44 HCMM 1 LIG1 H12    44  0.0000   1.0079 
  45 HCMM 1 LIG1 H13    45  0.0000   1.0079 
  46 HCMM 1 LIG1 H14    46  0.1500   1.0079 
  47 HCMM 1 LIG1 H15    47  0.1500   1.0079 
  48 HNCO 1 LIG1 H16    48  0.4000   1.0079 
  49 HCMM 1 LIG1 H17    49  0.1500   1.0079 
  50 HCMM 1 LIG1 H18    50  0.1500   1.0079 
  51 HCMM 1 LIG1 H19    51  0.1500   1.0079 
  52 HCMM 1 LIG1 H20    52  0.0000   1.0079 
  53 HCMM 1 LIG1 H21    53  0.0000   1.0079 
  54 HCMM 1 LIG1 H22    54  0.0000   1.0079 
  55 HCMM 1 LIG1 H23    55  0.1500   1.0079 

[ bonds ]
; ai aj fu b0 kb, b0 kb
  1   5 1 0.14510  306165.0  0.14510  306165.0 
  1   6 1 0.14510  306165.0  0.14510  306165.0 
  1   7 1 0.14510  306165.0  0.14510  306165.0 
  2  18 1 0.13980  371445.5  0.13980  371445.5 
  2  19 1 0.13980  371445.5  0.13980  371445.5 
  2  48 1 0.10180  396015.6  0.10180  396015.6 
  3  16 1 0.13330  345489.6  0.13330  345489.6 
  3  20 1 0.13330  345489.6  0.13330  345489.6 
  4  18 1 0.13330  345489.6  0.13330  345489.6 
  4  20 1 0.13330  345489.6  0.13330  345489.6 
  5   8 1 0.15080  256422.3  0.15080  256422.3 
  5  32 1 0.10930  287014.9  0.10930  287014.9 
  5  33 1 0.10930  287014.9  0.10930  287014.9 
  6   9 1 0.15080  256422.3  0.15080  256422.3 
  6  34 1 0.10930  287014.9  0.10930  287014.9 
  6  35 1 0.10930  287014.9  0.10930  287014.9 
  7  10 1 0.15080  256422.3  0.15080  256422.3 
  7  36 1 0.10930  287014.9  0.10930  287014.9 
  7  37 1 0.10930  287014.9  0.10930  287014.9 
  8  11 1 0.15080  256422.3  0.15080  256422.3 
  8  38 1 0.10930  287014.9  0.10930  287014.9 
  8  39 1 0.10930  287014.9  0.10930  287014.9 
  9  27 1 0.14180  303937.5  0.14180  303937.5 
  9  40 1 0.10930  287014.9  0.10930  287014.9 
  9  41 1 0.10930  287014.9  0.10930  287014.9 
 10  27 1 0.14180  303937.5  0.14180  303937.5 
 10  42 1 0.10930  287014.9  0.10930  287014.9 
 10  43 1 0.10930  287014.9  0.10930  287014.9 
 11  28 1 0.14180  303937.5  0.14180  303937.5 
 11  44 1 0.10930  287014.9  0.10930  287014.9 
 11  45 1 0.10930  287014.9  0.10930  287014.9 
 12  14 1 0.13740  335613.7  0.13740  335613.7 
 12  15 1 0.13740  335613.7  0.13740  335613.7 
 12  28 1 0.13760  338083.1  0.13760  338083.1 
 13  14 1 0.13740  335613.7  0.13740  335613.7 
 13  16 1 0.13740  335613.7  0.13740  335613.7 
 13  18 1 0.13740  335613.7  0.13740  335613.7 
 14  46 1 0.10840  319534.6  0.10840  319534.6 
 15  17 1 0.13740  335613.7  0.13740  335613.7 
 15  29 1 0.13760  338083.1  0.13760  338083.1 
 16  17 1 0.13740  335613.7  0.13740  335613.7 
 17  47 1 0.10840  319534.6  0.10840  319534.6 
 19  22 1 0.13740  335613.7  0.13740  335613.7 
 19  23 1 0.13740  335613.7  0.13740  335613.7 
 20  49 1 0.10840  319534.6  0.10840  319534.6 
 21  29 1 0.14180  303937.5  0.14180  303937.5 
 21  52 1 0.10930  287014.9  0.10930  287014.9 
 21  53 1 0.10930  287014.9  0.10930  287014.9 
 21  54 1 0.10930  287014.9  0.10930  287014.9 
 22  24 1 0.13740  335613.7  0.13740  335613.7 
 22  50 1 0.10840  319534.6  0.10840  319534.6 
 23  25 1 0.13740  335613.7  0.13740  335613.7 
 23  51 1 0.10840  319534.6  0.10840  319534.6 
 24  26 1 0.13740  335613.7  0.13740  335613.7 
 24  30 1 0.17210  203427.8  0.17210  203427.8 
 25  26 1 0.13740  335613.7  0.13740  335613.7 
 25  55 1 0.10840  319534.6  0.10840  319534.6 
 26  31 1 0.13420  392101.0  0.13420  392101.0 


[ pairs ]
; ai aj fu
  1  11 1  
  1  38 1  
  1  39 1  
  1  27 1  
  1  40 1  
  1  41 1  
  1  42 1  
  1  43 1  
  2  20 1  
  2  14 1  
  2  16 1  
  2  24 1  
  2  50 1  
  2  25 1  
  2  51 1  
  3  14 1  
  3  18 1  
  3  15 1  
  3  47 1  
  4  19 1  
  4  48 1  
  4  14 1  
  4  16 1  
  5   9 1  
  5  34 1  
  5  35 1  
  5  10 1  
  5  36 1  
  5  37 1  
  5  28 1  
  5  44 1  
  5  45 1  
  6   8 1  
  6  32 1  
  6  33 1  
  6  10 1  
  6  36 1  
  6  37 1  
  7   8 1  
  7  32 1  
  7  33 1  
  7   9 1  
  7  34 1  
  7  35 1  
  8  12 1  
  9  42 1  
  9  43 1  
 10  40 1  
 10  41 1  
 11  32 1  
 11  33 1  
 11  14 1  
 11  15 1  
 12  16 1  
 12  18 1  
 12  47 1  
 12  21 1  
 12  44 1  
 12  45 1  
 13  15 1  
 13  28 1  
 13  20 1  
 13  47 1  
 13  19 1  
 13  48 1  
 14  17 1  
 14  29 1  
 15  46 1  
 15  52 1  
 15  53 1  
 15  54 1  
 16  49 1  
 16  46 1  
 16  29 1  
 17  28 1  
 17  21 1  
 17  20 1  
 17  18 1  
 18  22 1  
 18  23 1  
 18  49 1  
 18  46 1  
 19  26 1  
 19  30 1  
 19  55 1  
 22  48 1  
 22  25 1  
 22  51 1  
 22  31 1  
 23  48 1  
 23  24 1  
 23  50 1  
 23  31 1  
 24  55 1  
 25  30 1  
 26  50 1  
 26  51 1  
 27  34 1  
 27  35 1  
 27  36 1  
 27  37 1  
 28  38 1  
 28  39 1  
 28  46 1  
 28  29 1  
 29  47 1  
 30  50 1  
 30  31 1  
 31  55 1  
 32  38 1  
 32  39 1  
 33  38 1  
 33  39 1  
 34  40 1  
 34  41 1  
 35  40 1  
 35  41 1  
 36  42 1  
 36  43 1  
 37  42 1  
 37  43 1  
 38  44 1  
 38  45 1  
 39  44 1  
 39  45 1  
 51  55 1  


[ angles ] 
; ai aj ak fu th0 kth ub0 kub th0 kth ub0 kub
  5   1   6 1  107.0180  656.41    107.0180  656.41 
  5   1   7 1  107.0180  656.41    107.0180  656.41 
  6   1   7 1  107.0180  656.41    107.0180  656.41 
 18   2  19 1  119.0180  604.62    119.0180  604.62 
 18   2  48 1  110.2880  398.66    110.2880  398.66 
 19   2  48 1  110.2880  398.66    110.2880  398.66 
 16   3  20 1  115.4060  653.40    115.4060  653.40 
 18   4  20 1  115.4060  653.40    115.4060  653.40 
  1   5   8 1  108.2900  467.91    108.2900  467.91 
  1   5  32 1  110.2970  393.25    110.2970  393.25 
  1   5  33 1  110.2970  393.25    110.2970  393.25 
  8   5  32 1  110.5490  383.00    110.5490  383.00 
  8   5  33 1  110.5490  383.00    110.5490  383.00 
 32   5  33 1  108.8360  310.74    108.8360  310.74 
  1   6   9 1  108.2900  467.91    108.2900  467.91 
  1   6  34 1  110.2970  393.25    110.2970  393.25 
  1   6  35 1  110.2970  393.25    110.2970  393.25 
  9   6  34 1  110.5490  383.00    110.5490  383.00 
  9   6  35 1  110.5490  383.00    110.5490  383.00 
 34   6  35 1  108.8360  310.74    108.8360  310.74 
  1   7  10 1  108.2900  467.91    108.2900  467.91 
  1   7  36 1  110.2970  393.25    110.2970  393.25 
  1   7  37 1  110.2970  393.25    110.2970  393.25 
 10   7  36 1  110.5490  383.00    110.5490  383.00 
 10   7  37 1  110.5490  383.00    110.5490  383.00 
 36   7  37 1  108.8360  310.74    108.8360  310.74 
  5   8  11 1  109.6080  512.48    109.6080  512.48 
  5   8  38 1  110.5490  383.00    110.5490  383.00 
  5   8  39 1  110.5490  383.00    110.5490  383.00 
 11   8  38 1  110.5490  383.00    110.5490  383.00 
 11   8  39 1  110.5490  383.00    110.5490  383.00 
 38   8  39 1  108.8360  310.74    108.8360  310.74 
  6   9  27 1  108.1330  597.39    108.1330  597.39 
  6   9  40 1  110.5490  383.00    110.5490  383.00 
  6   9  41 1  110.5490  383.00    110.5490  383.00 
 27   9  40 1  108.5770  470.32    108.5770  470.32 
 27   9  41 1  108.5770  470.32    108.5770  470.32 
 40   9  41 1  108.8360  310.74    108.8360  310.74 
  7  10  27 1  108.1330  597.39    108.1330  597.39 
  7  10  42 1  110.5490  383.00    110.5490  383.00 
  7  10  43 1  110.5490  383.00    110.5490  383.00 
 27  10  42 1  108.5770  470.32    108.5770  470.32 
 27  10  43 1  108.5770  470.32    108.5770  470.32 
 42  10  43 1  108.8360  310.74    108.8360  310.74 
  8  11  28 1  108.1330  597.39    108.1330  597.39 
  8  11  44 1  110.5490  383.00    110.5490  383.00 
  8  11  45 1  110.5490  383.00    110.5490  383.00 
 28  11  44 1  108.5770  470.32    108.5770  470.32 
 28  11  45 1  108.5770  470.32    108.5770  470.32 
 44  11  45 1  108.8360  310.74    108.8360  310.74 
 14  12  15 1  119.9770  402.88    119.9770  402.88 
 14  12  28 1  116.4950  582.94    116.4950  582.94 
 15  12  28 1  116.4950  582.94    116.4950  582.94 
 14  13  16 1  119.9770  402.88    119.9770  402.88 
 14  13  18 1  119.9770  402.88    119.9770  402.88 
 16  13  18 1  119.9770  402.88    119.9770  402.88 
 12  14  13 1  119.9770  402.88    119.9770  402.88 
 12  14  46 1  120.5710  339.05    120.5710  339.05 
 13  14  46 1  120.5710  339.05    120.5710  339.05 
 12  15  17 1  119.9770  402.88    119.9770  402.88 
 12  15  29 1  116.4950  582.94    116.4950  582.94 
 17  15  29 1  116.4950  582.94    116.4950  582.94 
  3  16  13 1  126.1390  358.92    126.1390  358.92 
  3  16  17 1  126.1390  358.92    126.1390  358.92 
 13  16  17 1  119.9770  402.88    119.9770  402.88 
 15  17  16 1  119.9770  402.88    119.9770  402.88 
 15  17  47 1  120.5710  339.05    120.5710  339.05 
 16  17  47 1  120.5710  339.05    120.5710  339.05 
  2  18   4 1  123.7550  616.66    123.7550  616.66 
  2  18  13 1  121.6330  629.31    121.6330  629.31 
  4  18  13 1  126.1390  358.92    126.1390  358.92 
  2  19  22 1  121.6330  629.31    121.6330  629.31 
  2  19  23 1  121.6330  629.31    121.6330  629.31 
 22  19  23 1  119.9770  402.88    119.9770  402.88 
  3  20   4 1  128.9380  436.60    128.9380  436.60 
  3  20  49 1  115.5880  417.33    115.5880  417.33 
  4  20  49 1  115.5880  417.33    115.5880  417.33 
 29  21  52 1  108.5770  470.32    108.5770  470.32 
 29  21  53 1  108.5770  470.32    108.5770  470.32 
 29  21  54 1  108.5770  470.32    108.5770  470.32 
 52  21  53 1  108.8360  310.74    108.8360  310.74 
 52  21  54 1  108.8360  310.74    108.8360  310.74 
 53  21  54 1  108.8360  310.74    108.8360  310.74 
 19  22  24 1  119.9770  402.88    119.9770  402.88 
 19  22  50 1  120.5710  339.05    120.5710  339.05 
 24  22  50 1  120.5710  339.05    120.5710  339.05 
 19  23  25 1  119.9770  402.88    119.9770  402.88 
 19  23  51 1  120.5710  339.05    120.5710  339.05 
 25  23  51 1  120.5710  339.05    120.5710  339.05 
 22  24  26 1  119.9770  402.88    119.9770  402.88 
 22  24  30 1  118.4950  572.10    118.4950  572.10 
 26  24  30 1  118.4950  572.10    118.4950  572.10 
 23  25  26 1  119.9770  402.88    119.9770  402.88 
 23  25  55 1  120.5710  339.05    120.5710  339.05 
 26  25  55 1  120.5710  339.05    120.5710  339.05 
 24  26  25 1  119.9770  402.88    119.9770  402.88 
 24  26  31 1  118.0650  658.81    118.0650  658.81 
 25  26  31 1  118.0650  658.81    118.0650  658.81 
  9  27  10 1  106.9260  720.84    106.9260  720.84 
 11  28  12 1  102.8460  647.37    102.8460  647.37 
 15  29  21 1  102.8460  647.37    102.8460  647.37 


[ dihedrals ] 
; ai aj ak al fu phi0 kphi mult phi0 kphi mult
  1   5   8  11 9   0.00  -2.9706 1     0.00  -2.9706 1 
  1   5   8  11 9 180.00  -0.1925 2   180.00  -0.1925 2 
  1   5   8  11 9   0.00   2.3012 3     0.00   2.3012 3 
  1   5   8  38 9   0.00  -1.5564 1     0.00  -1.5564 1 
  1   5   8  38 9 180.00  -2.5857 2   180.00  -2.5857 2 
  1   5   8  38 9   0.00   0.7071 3     0.00   0.7071 3 
  1   5   8  39 9   0.00  -1.5564 1     0.00  -1.5564 1 
  1   5   8  39 9 180.00  -2.5857 2   180.00  -2.5857 2 
  1   5   8  39 9   0.00   0.7071 3     0.00   0.7071 3 
  1   6   9  27 9   0.00   0.6276 3     0.00   0.6276 3 
  1   6   9  40 9   0.00  -1.5564 1     0.00  -1.5564 1 
  1   6   9  40 9 180.00  -2.5857 2   180.00  -2.5857 2 
  1   6   9  40 9   0.00   0.7071 3     0.00   0.7071 3 
  1   6   9  41 9   0.00  -1.5564 1     0.00  -1.5564 1 
  1   6   9  41 9 180.00  -2.5857 2   180.00  -2.5857 2 
  1   6   9  41 9   0.00   0.7071 3     0.00   0.7071 3 
  1   7  10  27 9   0.00   0.6276 3     0.00   0.6276 3 
  1   7  10  42 9   0.00  -1.5564 1     0.00  -1.5564 1 
  1   7  10  42 9 180.00  -2.5857 2   180.00  -2.5857 2 
  1   7  10  42 9   0.00   0.7071 3     0.00   0.7071 3 
  1   7  10  43 9   0.00  -1.5564 1     0.00  -1.5564 1 
  1   7  10  43 9 180.00  -2.5857 2   180.00  -2.5857 2 
  1   7  10  43 9   0.00   0.7071 3     0.00   0.7071 3 
  2  18   4  20 9 180.00  14.6440 2   180.00  14.6440 2 
  2  18  13  14 9 180.00  14.6440 2   180.00  14.6440 2 
  2  18  13  16 9 180.00  14.6440 2   180.00  14.6440 2 
  2  19  22  24 9 180.00  14.6440 2   180.00  14.6440 2 
  2  19  22  50 9 180.00  14.6440 2   180.00  14.6440 2 
  2  19  23  25 9 180.00  14.6440 2   180.00  14.6440 2 
  2  19  23  51 9 180.00  14.6440 2   180.00  14.6440 2 
  3  16  13  14 9 180.00  14.6440 2   180.00  14.6440 2 
  3  16  13  18 9 180.00  14.6440 2   180.00  14.6440 2 
  3  16  17  15 9 180.00  14.6440 2   180.00  14.6440 2 
  3  16  17  47 9 180.00  14.6440 2   180.00  14.6440 2 
  3  20   4  18 9 180.00  14.6440 2   180.00  14.6440 2 
  4  18   2  19 9 180.00   8.3680 2   180.00   8.3680 2 
  4  18   2  48 9 180.00   8.3680 2   180.00   8.3680 2 
  4  18  13  14 9 180.00  14.6440 2   180.00  14.6440 2 
  4  18  13  16 9 180.00  14.6440 2   180.00  14.6440 2 
  4  20   3  16 9 180.00  14.6440 2   180.00  14.6440 2 
  5   1   6   9 9   0.00  -0.9205 1     0.00  -0.9205 1 
  5   1   6   9 9 180.00   1.6443 2   180.00   1.6443 2 
  5   1   6   9 9   0.00   0.5690 3     0.00   0.5690 3 
  5   1   6  34 9   0.00   0.8242 1     0.00   0.8242 1 
  5   1   6  34 9 180.00  -0.8075 2   180.00  -0.8075 2 
  5   1   6  34 9   0.00   1.1757 3     0.00   1.1757 3 
  5   1   6  35 9   0.00   0.8242 1     0.00   0.8242 1 
  5   1   6  35 9 180.00  -0.8075 2   180.00  -0.8075 2 
  5   1   6  35 9   0.00   1.1757 3     0.00   1.1757 3 
  5   1   7  10 9   0.00  -0.9205 1     0.00  -0.9205 1 
  5   1   7  10 9 180.00   1.6443 2   180.00   1.6443 2 
  5   1   7  10 9   0.00   0.5690 3     0.00   0.5690 3 
  5   1   7  36 9   0.00   0.8242 1     0.00   0.8242 1 
  5   1   7  36 9 180.00  -0.8075 2   180.00  -0.8075 2 
  5   1   7  36 9   0.00   1.1757 3     0.00   1.1757 3 
  5   1   7  37 9   0.00   0.8242 1     0.00   0.8242 1 
  5   1   7  37 9 180.00  -0.8075 2   180.00  -0.8075 2 
  5   1   7  37 9   0.00   1.1757 3     0.00   1.1757 3 
  5   8  11  28 9   0.00  -1.4393 1     0.00  -1.4393 1 
  5   8  11  28 9 180.00   3.6736 2   180.00   3.6736 2 
  5   8  11  28 9   0.00   0.9958 3     0.00   0.9958 3 
  5   8  11  44 9   0.00   1.3389 1     0.00   1.3389 1 
  5   8  11  44 9 180.00  -1.3180 2   180.00  -1.3180 2 
  5   8  11  44 9   0.00   0.5523 3     0.00   0.5523 3 
  5   8  11  45 9   0.00   1.3389 1     0.00   1.3389 1 
  5   8  11  45 9 180.00  -1.3180 2   180.00  -1.3180 2 
  5   8  11  45 9   0.00   0.5523 3     0.00   0.5523 3 
  6   1   5   8 9   0.00  -0.9205 1     0.00  -0.9205 1 
  6   1   5   8 9 180.00   1.6443 2   180.00   1.6443 2 
  6   1   5   8 9   0.00   0.5690 3     0.00   0.5690 3 
  6   1   5  32 9   0.00   0.8242 1     0.00   0.8242 1 
  6   1   5  32 9 180.00  -0.8075 2   180.00  -0.8075 2 
  6   1   5  32 9   0.00   1.1757 3     0.00   1.1757 3 
  6   1   5  33 9   0.00   0.8242 1     0.00   0.8242 1 
  6   1   5  33 9 180.00  -0.8075 2   180.00  -0.8075 2 
  6   1   5  33 9   0.00   1.1757 3     0.00   1.1757 3 
  6   1   7  10 9   0.00  -0.9205 1     0.00  -0.9205 1 
  6   1   7  10 9 180.00   1.6443 2   180.00   1.6443 2 
  6   1   7  10 9   0.00   0.5690 3     0.00   0.5690 3 
  6   1   7  36 9   0.00   0.8242 1     0.00   0.8242 1 
  6   1   7  36 9 180.00  -0.8075 2   180.00  -0.8075 2 
  6   1   7  36 9   0.00   1.1757 3     0.00   1.1757 3 
  6   1   7  37 9   0.00   0.8242 1     0.00   0.8242 1 
  6   1   7  37 9 180.00  -0.8075 2   180.00  -0.8075 2 
  6   1   7  37 9   0.00   1.1757 3     0.00   1.1757 3 
  6   9  27  10 9   0.00  -1.4267 1     0.00  -1.4267 1 
  6   9  27  10 9 180.00   1.5816 2   180.00   1.5816 2 
  6   9  27  10 9   0.00   1.5816 3     0.00   1.5816 3 
  7   1   5   8 9   0.00  -0.9205 1     0.00  -0.9205 1 
  7   1   5   8 9 180.00   1.6443 2   180.00   1.6443 2 
  7   1   5   8 9   0.00   0.5690 3     0.00   0.5690 3 
  7   1   5  32 9   0.00   0.8242 1     0.00   0.8242 1 
  7   1   5  32 9 180.00  -0.8075 2   180.00  -0.8075 2 
  7   1   5  32 9   0.00   1.1757 3     0.00   1.1757 3 
  7   1   5  33 9   0.00   0.8242 1     0.00   0.8242 1 
  7   1   5  33 9 180.00  -0.8075 2   180.00  -0.8075 2 
  7   1   5  33 9   0.00   1.1757 3     0.00   1.1757 3 
  7   1   6   9 9   0.00  -0.9205 1     0.00  -0.9205 1 
  7   1   6   9 9 180.00   1.6443 2   180.00   1.6443 2 
  7   1   6   9 9   0.00   0.5690 3     0.00   0.5690 3 
  7   1   6  34 9   0.00   0.8242 1     0.00   0.8242 1 
  7   1   6  34 9 180.00  -0.8075 2   180.00  -0.8075 2 
  7   1   6  34 9   0.00   1.1757 3     0.00   1.1757 3 
  7   1   6  35 9   0.00   0.8242 1     0.00   0.8242 1 
  7   1   6  35 9 180.00  -0.8075 2   180.00  -0.8075 2 
  7   1   6  35 9   0.00   1.1757 3     0.00   1.1757 3 
  7  10  27   9 9   0.00  -1.4267 1     0.00  -1.4267 1 
  7  10  27   9 9 180.00   1.5816 2   180.00   1.5816 2 
  7  10  27   9 9   0.00   1.5816 3     0.00   1.5816 3 
  8  11  28  12 9   0.00   0.4184 3     0.00   0.4184 3 
  9  27  10  42 9   0.00   1.1924 1     0.00   1.1924 1 
  9  27  10  42 9 180.00   0.6694 2   180.00   0.6694 2 
  9  27  10  42 9   0.00   1.1924 3     0.00   1.1924 3 
  9  27  10  43 9   0.00   1.1924 1     0.00   1.1924 1 
  9  27  10  43 9 180.00   0.6694 2   180.00   0.6694 2 
  9  27  10  43 9   0.00   1.1924 3     0.00   1.1924 3 
 10  27   9  40 9   0.00   1.1924 1     0.00   1.1924 1 
 10  27   9  40 9 180.00   0.6694 2   180.00   0.6694 2 
 10  27   9  40 9   0.00   1.1924 3     0.00   1.1924 3 
 10  27   9  41 9   0.00   1.1924 1     0.00   1.1924 1 
 10  27   9  41 9 180.00   0.6694 2   180.00   0.6694 2 
 10  27   9  41 9   0.00   1.1924 3     0.00   1.1924 3 
 11   8   5  32 9   0.00   1.3389 1     0.00   1.3389 1 
 11   8   5  32 9 180.00  -1.3180 2   180.00  -1.3180 2 
 11   8   5  32 9   0.00   0.5523 3     0.00   0.5523 3 
 11   8   5  33 9   0.00   1.3389 1     0.00   1.3389 1 
 11   8   5  33 9 180.00  -1.3180 2   180.00  -1.3180 2 
 11   8   5  33 9   0.00   0.5523 3     0.00   0.5523 3 
 11  28  12  14 9 180.00   9.1671 2   180.00   9.1671 2 
 11  28  12  15 9 180.00   9.1671 2   180.00   9.1671 2 
 12  14  13  16 9 180.00  14.6440 2   180.00  14.6440 2 
 12  14  13  18 9 180.00  14.6440 2   180.00  14.6440 2 
 12  15  17  16 9 180.00  14.6440 2   180.00  14.6440 2 
 12  15  17  47 9 180.00  14.6440 2   180.00  14.6440 2 
 12  15  29  21 9 180.00   9.1671 2   180.00   9.1671 2 
 12  28  11  44 9   0.00   0.2218 3     0.00   0.2218 3 
 12  28  11  45 9   0.00   0.2218 3     0.00   0.2218 3 
 13  14  12  15 9 180.00  14.6440 2   180.00  14.6440 2 
 13  14  12  28 9 180.00  14.6440 2   180.00  14.6440 2 
 13  16   3  20 9 180.00  14.6440 2   180.00  14.6440 2 
 13  16  17  15 9 180.00  14.6440 2   180.00  14.6440 2 
 13  16  17  47 9 180.00  14.6440 2   180.00  14.6440 2 
 13  18   2  19 9 180.00   8.3680 2   180.00   8.3680 2 
 13  18   2  48 9   0.00   1.4937 1     0.00   1.4937 1 
 13  18   2  48 9 180.00   5.4978 2   180.00   5.4978 2 
 13  18   2  48 9   0.00   7.0166 3     0.00   7.0166 3 
 13  18   4  20 9 180.00  14.6440 2   180.00  14.6440 2 
 14  12  15  17 9 180.00  14.6440 2   180.00  14.6440 2 
 14  12  15  29 9 180.00  14.6440 2   180.00  14.6440 2 
 14  13  16  17 9 180.00  14.6440 2   180.00  14.6440 2 
 15  12  14  46 9 180.00  14.6440 2   180.00  14.6440 2 
 15  29  21  52 9   0.00   0.2218 3     0.00   0.2218 3 
 15  29  21  53 9   0.00   0.2218 3     0.00   0.2218 3 
 15  29  21  54 9   0.00   0.2218 3     0.00   0.2218 3 
 16   3  20  49 9 180.00  14.6440 2   180.00  14.6440 2 
 16  13  14  46 9 180.00  14.6440 2   180.00  14.6440 2 
 16  17  15  29 9 180.00  14.6440 2   180.00  14.6440 2 
 17  15  12  28 9 180.00  14.6440 2   180.00  14.6440 2 
 17  15  29  21 9 180.00   9.1671 2   180.00   9.1671 2 
 17  16   3  20 9 180.00  14.6440 2   180.00  14.6440 2 
 17  16  13  18 9 180.00  14.6440 2   180.00  14.6440 2 
 18   2  19  22 9 180.00   8.3680 2   180.00   8.3680 2 
 18   2  19  23 9 180.00   8.3680 2   180.00   8.3680 2 
 18   4  20  49 9 180.00  14.6440 2   180.00  14.6440 2 
 18  13  14  46 9 180.00  14.6440 2   180.00  14.6440 2 
 19  22  24  26 9 180.00  14.6440 2   180.00  14.6440 2 
 19  22  24  30 9 180.00  14.6440 2   180.00  14.6440 2 
 19  23  25  26 9 180.00  14.6440 2   180.00  14.6440 2 
 19  23  25  55 9 180.00  14.6440 2   180.00  14.6440 2 
 22  19   2  48 9   0.00   1.4937 1     0.00   1.4937 1 
 22  19   2  48 9 180.00   5.4978 2   180.00   5.4978 2 
 22  19   2  48 9   0.00   7.0166 3     0.00   7.0166 3 
 22  19  23  25 9 180.00  14.6440 2   180.00  14.6440 2 
 22  19  23  51 9 180.00  14.6440 2   180.00  14.6440 2 
 22  24  26  25 9 180.00  14.6440 2   180.00  14.6440 2 
 22  24  26  31 9 180.00  14.6440 2   180.00  14.6440 2 
 23  19   2  48 9   0.00   1.4937 1     0.00   1.4937 1 
 23  19   2  48 9 180.00   5.4978 2   180.00   5.4978 2 
 23  19   2  48 9   0.00   7.0166 3     0.00   7.0166 3 
 23  19  22  24 9 180.00  14.6440 2   180.00  14.6440 2 
 23  19  22  50 9 180.00  14.6440 2   180.00  14.6440 2 
 23  25  26  24 9 180.00  14.6440 2   180.00  14.6440 2 
 23  25  26  31 9 180.00  14.6440 2   180.00  14.6440 2 
 24  26  25  55 9 180.00  14.6440 2   180.00  14.6440 2 
 25  26  24  30 9 180.00  14.6440 2   180.00  14.6440 2 
 26  24  22  50 9 180.00  14.6440 2   180.00  14.6440 2 
 26  25  23  51 9 180.00  14.6440 2   180.00  14.6440 2 
 27   9   6  34 9   0.00  -1.3682 1     0.00  -1.3682 1 
 27   9   6  34 9 180.00   2.2426 2   180.00   2.2426 2 
 27   9   6  34 9   0.00   0.5858 3     0.00   0.5858 3 
 27   9   6  35 9   0.00  -1.3682 1     0.00  -1.3682 1 
 27   9   6  35 9 180.00   2.2426 2   180.00   2.2426 2 
 27   9   6  35 9   0.00   0.5858 3     0.00   0.5858 3 
 27  10   7  36 9   0.00  -1.3682 1     0.00  -1.3682 1 
 27  10   7  36 9 180.00   2.2426 2   180.00   2.2426 2 
 27  10   7  36 9   0.00   0.5858 3     0.00   0.5858 3 
 27  10   7  37 9   0.00  -1.3682 1     0.00  -1.3682 1 
 27  10   7  37 9 180.00   2.2426 2   180.00   2.2426 2 
 27  10   7  37 9   0.00   0.5858 3     0.00   0.5858 3 
 28  11   8  38 9   0.00  -1.3682 1     0.00  -1.3682 1 
 28  11   8  38 9 180.00   2.2426 2   180.00   2.2426 2 
 28  11   8  38 9   0.00   0.5858 3     0.00   0.5858 3 
 28  11   8  39 9   0.00  -1.3682 1     0.00  -1.3682 1 
 28  11   8  39 9 180.00   2.2426 2   180.00   2.2426 2 
 28  11   8  39 9   0.00   0.5858 3     0.00   0.5858 3 
 28  12  14  46 9 180.00  14.6440 2   180.00  14.6440 2 
 28  12  15  29 9 180.00  14.6440 2   180.00  14.6440 2 
 29  15  17  47 9 180.00  14.6440 2   180.00  14.6440 2 
 30  24  22  50 9 180.00  14.6440 2   180.00  14.6440 2 
 30  24  26  31 9 180.00  14.6440 2   180.00  14.6440 2 
 31  26  25  55 9 180.00  14.6440 2   180.00  14.6440 2 
 32   5   8  38 9   0.00   0.5941 1     0.00   0.5941 1 
 32   5   8  38 9 180.00  -2.8995 2   180.00  -2.8995 2 
 32   5   8  38 9   0.00   0.6569 3     0.00   0.6569 3 
 32   5   8  39 9   0.00   0.5941 1     0.00   0.5941 1 
 32   5   8  39 9 180.00  -2.8995 2   180.00  -2.8995 2 
 32   5   8  39 9   0.00   0.6569 3     0.00   0.6569 3 
 33   5   8  38 9   0.00   0.5941 1     0.00   0.5941 1 
 33   5   8  38 9 180.00  -2.8995 2   180.00  -2.8995 2 
 33   5   8  38 9   0.00   0.6569 3     0.00   0.6569 3 
 33   5   8  39 9   0.00   0.5941 1     0.00   0.5941 1 
 33   5   8  39 9 180.00  -2.8995 2   180.00  -2.8995 2 
 33   5   8  39 9   0.00   0.6569 3     0.00   0.6569 3 
 34   6   9  40 9   0.00   0.5941 1     0.00   0.5941 1 
 34   6   9  40 9 180.00  -2.8995 2   180.00  -2.8995 2 
 34   6   9  40 9   0.00   0.6569 3     0.00   0.6569 3 
 34   6   9  41 9   0.00   0.5941 1     0.00   0.5941 1 
 34   6   9  41 9 180.00  -2.8995 2   180.00  -2.8995 2 
 34   6   9  41 9   0.00   0.6569 3     0.00   0.6569 3 
 35   6   9  40 9   0.00   0.5941 1     0.00   0.5941 1 
 35   6   9  40 9 180.00  -2.8995 2   180.00  -2.8995 2 
 35   6   9  40 9   0.00   0.6569 3     0.00   0.6569 3 
 35   6   9  41 9   0.00   0.5941 1     0.00   0.5941 1 
 35   6   9  41 9 180.00  -2.8995 2   180.00  -2.8995 2 
 35   6   9  41 9   0.00   0.6569 3     0.00   0.6569 3 
 36   7  10  42 9   0.00   0.5941 1     0.00   0.5941 1 
 36   7  10  42 9 180.00  -2.8995 2   180.00  -2.8995 2 
 36   7  10  42 9   0.00   0.6569 3     0.00   0.6569 3 
 36   7  10  43 9   0.00   0.5941 1     0.00   0.5941 1 
 36   7  10  43 9 180.00  -2.8995 2   180.00  -2.8995 2 
 36   7  10  43 9   0.00   0.6569 3     0.00   0.6569 3 
 37   7  10  42 9   0.00   0.5941 1     0.00   0.5941 1 
 37   7  10  42 9 180.00  -2.8995 2   180.00  -2.8995 2 
 37   7  10  42 9   0.00   0.6569 3     0.00   0.6569 3 
 37   7  10  43 9   0.00   0.5941 1     0.00   0.5941 1 
 37   7  10  43 9 180.00  -2.8995 2   180.00  -2.8995 2 
 37   7  10  43 9   0.00   0.6569 3     0.00   0.6569 3 
 38   8  11  44 9   0.00   0.5941 1     0.00   0.5941 1 
 38   8  11  44 9 180.00  -2.8995 2   180.00  -2.8995 2 
 38   8  11  44 9   0.00   0.6569 3     0.00   0.6569 3 
 38   8  11  45 9   0.00   0.5941 1     0.00   0.5941 1 
 38   8  11  45 9 180.00  -2.8995 2   180.00  -2.8995 2 
 38   8  11  45 9   0.00   0.6569 3     0.00   0.6569 3 
 39   8  11  44 9   0.00   0.5941 1     0.00   0.5941 1 
 39   8  11  44 9 180.00  -2.8995 2   180.00  -2.8995 2 
 39   8  11  44 9   0.00   0.6569 3     0.00   0.6569 3 
 39   8  11  45 9   0.00   0.5941 1     0.00   0.5941 1 
 39   8  11  45 9 180.00  -2.8995 2   180.00  -2.8995 2 
 39   8  11  45 9   0.00   0.6569 3     0.00   0.6569 3 
 51  23  25  55 9 180.00  14.6440 2   180.00  14.6440 2 


[ dihedrals ]
; ai aj ak al fu xi0 kxi xi0 kxi
  1   7   5   6 2   0.00   0.0000     0.00   0.0000
  5   8   1  32 2   0.00   0.0000     0.00   0.0000
  5   8   1  33 2   0.00   0.0000     0.00   0.0000
  6   9   1  34 2   0.00   0.0000     0.00   0.0000
  6   9   1  35 2   0.00   0.0000     0.00   0.0000
  7  10   1  36 2   0.00   0.0000     0.00   0.0000
  7  10   1  37 2   0.00   0.0000     0.00   0.0000
  8  11   5  38 2   0.00   0.0000     0.00   0.0000
  8  11   5  39 2   0.00   0.0000     0.00   0.0000
  9  27   6  40 2   0.00   0.0000     0.00   0.0000
  9  27   6  41 2   0.00   0.0000     0.00   0.0000
 11  28   8  44 2   0.00   0.0000     0.00   0.0000
 11  28   8  45 2   0.00   0.0000     0.00   0.0000
 12  14  28  15 2   0.00  28.9031     0.00  28.9031
 14  13  12  46 2   0.00   9.0291     0.00   9.0291
 13  18  14  16 2   0.00  21.0790     0.00  21.0790
 18   2  13   4 2   0.00  21.0790     0.00  21.0790
 16   3  13  17 2   0.00  21.0790     0.00  21.0790
  2  19  18  48 2   0.00  -3.0125     0.00  -3.0125
 19  22   2  23 2   0.00  27.6981     0.00  27.6981
 22  24  19  50 2   0.00   9.0291     0.00   9.0291
 23  25  19  51 2   0.00   9.0291     0.00   9.0291
 24  30  22  26 2   0.00  21.0790     0.00  21.0790
 15  17  12  29 2   0.00  28.9031     0.00  28.9031
 26  25  24  31 2   0.00  21.0790     0.00  21.0790
 10  27   7  42 2   0.00   0.0000     0.00   0.0000
 10  27   7  43 2   0.00   0.0000     0.00   0.0000
 17  15  16  47 2   0.00   9.0291     0.00   9.0291
 20   4   3  49 2   0.00  50.5846     0.00  50.5846
 21  52  29  53 2   0.00   0.0000     0.00   0.0000
 21  52  29  54 2   0.00   0.0000     0.00   0.0000
 25  26  23  55 2   0.00   9.0291     0.00   9.0291


#ifdef POSRES_LIGAND 
[ position_restraints ] 
; atom  type      fx      fy      fz
   1 1 1000 1000 1000 
   2 1 1000 1000 1000 
   3 1 1000 1000 1000 
   4 1 1000 1000 1000 
   5 1 1000 1000 1000 
   6 1 1000 1000 1000 
   7 1 1000 1000 1000 
   8 1 1000 1000 1000 
   9 1 1000 1000 1000 
  10 1 1000 1000 1000 
  11 1 1000 1000 1000 
  12 1 1000 1000 1000 
  13 1 1000 1000 1000 
  14 1 1000 1000 1000 
  15 1 1000 1000 1000 
  16 1 1000 1000 1000 
  17 1 1000 1000 1000 
  18 1 1000 1000 1000 
  19 1 1000 1000 1000 
  20 1 1000 1000 1000 
  21 1 1000 1000 1000 
  22 1 1000 1000 1000 
  23 1 1000 1000 1000 
  24 1 1000 1000 1000 
  25 1 1000 1000 1000 
  26 1 1000 1000 1000 
  27 1 1000 1000 1000 
  28 1 1000 1000 1000 
  29 1 1000 1000 1000 
  30 1 1000 1000 1000 
  31 1 1000 1000 1000 
#endif 

