; LIG_GMX.itp created by acpype (v: 2023.10.27) on Sun May 10 09:05:37 2026

[ atomtypes ]
;name   bond_type     mass     charge   ptype   sigma         epsilon       Amb
 cl       cl          0.00000  0.00000   A     3.46595e-01   1.10374e+00 ; 1.95  0.2638
 f        f           0.00000  0.00000   A     3.03422e-01   3.48109e-01 ; 1.70  0.0832
 os       os          0.00000  0.00000   A     3.15610e-01   3.03758e-01 ; 1.77  0.0726
 n3       n3          0.00000  0.00000   A     3.36510e-01   3.58987e-01 ; 1.89  0.0858
 nu       nu          0.00000  0.00000   A     3.27904e-01   6.46428e-01 ; 1.84  0.1545
 nb       nb          0.00000  0.00000   A     3.38417e-01   3.93714e-01 ; 1.90  0.0941
 c3       c3          0.00000  0.00000   A     3.39771e-01   4.51035e-01 ; 1.91  0.1078
 c6       c6          0.00000  0.00000   A     3.39771e-01   4.51035e-01 ; 1.91  0.1078
 ca       ca          0.00000  0.00000   A     3.31521e-01   4.13379e-01 ; 1.86  0.0988
 h1       h1          0.00000  0.00000   A     2.42200e-01   8.70272e-02 ; 1.36  0.0208
 hc       hc          0.00000  0.00000   A     2.60018e-01   8.70272e-02 ; 1.46  0.0208
 ha       ha          0.00000  0.00000   A     2.62548e-01   6.73624e-02 ; 1.47  0.0161
 hn       hn          0.00000  0.00000   A     1.10650e-01   4.18400e-02 ; 0.62  0.0100
 h5       h5          0.00000  0.00000   A     2.44730e-01   6.73624e-02 ; 1.37  0.0161

[ moleculetype ]
;name            nrexcl
 LIG              3

[ atoms ]
;   nr  type  resi  res  atom  cgnr     charge      mass       ; qtot   bond_type
     1   cl     1   UNL    CL    1    -0.067400     35.45000 ; qtot -0.067
     2    f     1   UNL     F    2    -0.124900     19.00000 ; qtot -0.192
     3   os     1   UNL     O    3    -0.408600     16.00000 ; qtot -0.601
     4   os     1   UNL    O1    4    -0.345900     16.00000 ; qtot -0.947
     5   os     1   UNL    O2    5    -0.334900     16.00000 ; qtot -1.282
     6   n3     1   UNL     N    6    -0.732600     14.01000 ; qtot -2.014
     7   nu     1   UNL    N1    7    -0.726300     14.01000 ; qtot -2.741
     8   nb     1   UNL    N2    8    -0.707000     14.01000 ; qtot -3.448
     9   nb     1   UNL    N3    9    -0.771999     14.01000 ; qtot -4.220
    10   c3     1   UNL     C   10     0.163800     12.01000 ; qtot -4.056
    11   c6     1   UNL    C1   11     0.125800     12.01000 ; qtot -3.930
    12   c6     1   UNL    C2   12     0.125800     12.01000 ; qtot -3.804
    13   c3     1   UNL    C3   13    -0.087400     12.01000 ; qtot -3.892
    14   c6     1   UNL    C4   14     0.125400     12.01000 ; qtot -3.766
    15   c6     1   UNL    C5   15     0.125400     12.01000 ; qtot -3.641
    16   c3     1   UNL    C6   16     0.134400     12.01000 ; qtot -3.506
    17   ca     1   UNL    C7   17     0.079100     12.01000 ; qtot -3.427
    18   ca     1   UNL    C8   18    -0.280600     12.01000 ; qtot -3.708
    19   ca     1   UNL    C9   19    -0.133000     12.01000 ; qtot -3.841
    20   ca     1   UNL   C10   20     0.121100     12.01000 ; qtot -3.720
    21   ca     1   UNL   C11   21     0.435600     12.01000 ; qtot -3.284
    22   ca     1   UNL   C12   22    -0.186300     12.01000 ; qtot -3.470
    23   ca     1   UNL   C13   23     0.696200     12.01000 ; qtot -2.774
    24   ca     1   UNL   C14   24     0.134600     12.01000 ; qtot -2.640
    25   ca     1   UNL   C15   25     0.667900     12.01000 ; qtot -1.972
    26   c3     1   UNL   C16   26     0.115700     12.01000 ; qtot -1.856
    27   ca     1   UNL   C17   27    -0.150000     12.01000 ; qtot -2.006
    28   ca     1   UNL   C18   28    -0.086000     12.01000 ; qtot -2.092
    29   ca     1   UNL   C19   29    -0.003600     12.01000 ; qtot -2.096
    30   ca     1   UNL   C20   30    -0.145000     12.01000 ; qtot -2.241
    31   ca     1   UNL   C21   31     0.121900     12.01000 ; qtot -2.119
    32   h1     1   UNL     H   32     0.042700      1.00800 ; qtot -2.076
    33   h1     1   UNL    H1   33     0.042700      1.00800 ; qtot -2.033
    34   h1     1   UNL    H2   34     0.042700      1.00800 ; qtot -1.991
    35   h1     1   UNL    H3   35     0.042700      1.00800 ; qtot -1.948
    36   h1     1   UNL    H4   36     0.042700      1.00800 ; qtot -1.905
    37   h1     1   UNL    H5   37     0.042700      1.00800 ; qtot -1.863
    38   hc     1   UNL    H6   38     0.057200      1.00800 ; qtot -1.805
    39   hc     1   UNL    H7   39     0.057200      1.00800 ; qtot -1.748
    40   h1     1   UNL    H8   40     0.053200      1.00800 ; qtot -1.695
    41   h1     1   UNL    H9   41     0.053200      1.00800 ; qtot -1.642
    42   h1     1   UNL   H10   42     0.053200      1.00800 ; qtot -1.589
    43   h1     1   UNL   H11   43     0.053200      1.00800 ; qtot -1.535
    44   h1     1   UNL   H12   44     0.051700      1.00800 ; qtot -1.484
    45   h1     1   UNL   H13   45     0.051700      1.00800 ; qtot -1.432
    46   ha     1   UNL   H14   46     0.156000      1.00800 ; qtot -1.276
    47   ha     1   UNL   H15   47     0.172000      1.00800 ; qtot -1.104
    48   hn     1   UNL   H16   48     0.436800      1.00800 ; qtot -0.667
    49   h5     1   UNL   H17   49     0.055100      1.00800 ; qtot -0.612
    50   ha     1   UNL   H18   50     0.147000      1.00800 ; qtot -0.465
    51   ha     1   UNL   H19   51     0.164000      1.00800 ; qtot -0.301
    52   h1     1   UNL   H20   52     0.048033      1.00800 ; qtot -0.253
    53   h1     1   UNL   H21   53     0.048033      1.00800 ; qtot -0.205
    54   h1     1   UNL   H22   54     0.048033      1.00800 ; qtot -0.157
    55   ha     1   UNL   H23   55     0.157000      1.00800 ; qtot -0.000

[ bonds ]
;   ai     aj funct   r             k
     1     29   1    1.7572e-01    1.5730e+05 ;     CL - C19   
     2     31   1    1.3502e-01    2.8070e+05 ;      F - C21   
     3     14   1    1.4300e-01    2.3412e+05 ;      O - C4    
     3     15   1    1.4300e-01    2.3412e+05 ;      O - C5    
     4     16   1    1.4273e-01    2.3620e+05 ;     O1 - C6    
     4     17   1    1.3688e-01    2.8731e+05 ;     O1 - C7    
     5     20   1    1.3688e-01    2.8731e+05 ;     O2 - C10   
     5     26   1    1.4273e-01    2.3620e+05 ;     O2 - C16   
     6     10   1    1.4626e-01    2.1410e+05 ;      N - C     
     6     11   1    1.4657e-01    2.1199e+05 ;      N - C1    
     6     12   1    1.4657e-01    2.1199e+05 ;      N - C2    
     7     23   1    1.3944e-01    2.6771e+05 ;     N1 - C13   
     7     24   1    1.3944e-01    2.6771e+05 ;     N1 - C14   
     7     48   1    1.0137e-01    3.9538e+05 ;     N1 - H16   
     8     21   1    1.3392e-01    3.2341e+05 ;     N2 - C11   
     8     25   1    1.3392e-01    3.2341e+05 ;     N2 - C15   
     9     23   1    1.3392e-01    3.2341e+05 ;     N3 - C13   
     9     25   1    1.3392e-01    3.2341e+05 ;     N3 - C15   
    10     13   1    1.5354e-01    1.9154e+05 ;      C - C3    
    10     32   1    1.0969e-01    2.8804e+05 ;      C - H     
    10     33   1    1.0969e-01    2.8804e+05 ;      C - H1    
    11     14   1    1.5384e-01    1.8979e+05 ;     C1 - C4    
    11     34   1    1.0984e-01    2.8620e+05 ;     C1 - H2    
    11     35   1    1.0984e-01    2.8620e+05 ;     C1 - H3    
    12     15   1    1.5384e-01    1.8979e+05 ;     C2 - C5    
    12     36   1    1.0984e-01    2.8620e+05 ;     C2 - H4    
    12     37   1    1.0984e-01    2.8620e+05 ;     C2 - H5    
    13     16   1    1.5354e-01    1.9154e+05 ;     C3 - C6    
    13     38   1    1.0962e-01    2.8891e+05 ;     C3 - H6    
    13     39   1    1.0962e-01    2.8891e+05 ;     C3 - H7    
    14     40   1    1.0984e-01    2.8620e+05 ;     C4 - H8    
    14     41   1    1.0984e-01    2.8620e+05 ;     C4 - H9    
    15     42   1    1.0984e-01    2.8620e+05 ;     C5 - H10   
    15     43   1    1.0984e-01    2.8620e+05 ;     C5 - H11   
    16     44   1    1.0969e-01    2.8804e+05 ;     C6 - H12   
    16     45   1    1.0969e-01    2.8804e+05 ;     C6 - H13   
    17     19   1    1.3986e-01    2.9644e+05 ;     C7 - C9    
    17     20   1    1.3986e-01    2.9644e+05 ;     C7 - C10   
    18     19   1    1.3986e-01    2.9644e+05 ;     C8 - C9    
    18     21   1    1.3986e-01    2.9644e+05 ;     C8 - C11   
    18     23   1    1.3986e-01    2.9644e+05 ;     C8 - C13   
    19     46   1    1.0860e-01    3.0183e+05 ;     C9 - H14   
    20     22   1    1.3986e-01    2.9644e+05 ;    C10 - C12   
    21     22   1    1.3986e-01    2.9644e+05 ;    C11 - C12   
    22     47   1    1.0860e-01    3.0183e+05 ;    C12 - H15   
    24     27   1    1.3986e-01    2.9644e+05 ;    C14 - C17   
    24     28   1    1.3986e-01    2.9644e+05 ;    C14 - C18   
    25     49   1    1.0880e-01    2.9923e+05 ;    C15 - H17   
    26     52   1    1.0969e-01    2.8804e+05 ;    C16 - H20   
    26     53   1    1.0969e-01    2.8804e+05 ;    C16 - H21   
    26     54   1    1.0969e-01    2.8804e+05 ;    C16 - H22   
    27     29   1    1.3986e-01    2.9644e+05 ;    C17 - C19   
    27     50   1    1.0860e-01    3.0183e+05 ;    C17 - H18   
    28     30   1    1.3986e-01    2.9644e+05 ;    C18 - C20   
    28     51   1    1.0860e-01    3.0183e+05 ;    C18 - H19   
    29     31   1    1.3986e-01    2.9644e+05 ;    C19 - C21   
    30     31   1    1.3986e-01    2.9644e+05 ;    C20 - C21   
    30     55   1    1.0860e-01    3.0183e+05 ;    C20 - H23   

[ pairs ]
;   ai     aj    funct
     1      2      1 ;     CL - F     
     1     24      1 ;     CL - C14   
     1     30      1 ;     CL - C20   
     1     50      1 ;     CL - H18   
     2     27      1 ;      F - C17   
     2     28      1 ;      F - C18   
     2     55      1 ;      F - H23   
     3      6      1 ;      O - N     
     3     34      1 ;      O - H2    
     3     35      1 ;      O - H3    
     3     36      1 ;      O - H4    
     3     37      1 ;      O - H5    
     4      5      1 ;     O1 - O2    
     4     10      1 ;     O1 - C     
     4     18      1 ;     O1 - C8    
     4     22      1 ;     O1 - C12   
     4     38      1 ;     O1 - H6    
     4     39      1 ;     O1 - H7    
     4     46      1 ;     O1 - H14   
     5     19      1 ;     O2 - C9    
     5     21      1 ;     O2 - C11   
     5     47      1 ;     O2 - H15   
     6     16      1 ;      N - C6    
     6     38      1 ;      N - H6    
     6     39      1 ;      N - H7    
     6     40      1 ;      N - H8    
     6     41      1 ;      N - H9    
     6     42      1 ;      N - H10   
     6     43      1 ;      N - H11   
     7     19      1 ;     N1 - C9    
     7     21      1 ;     N1 - C11   
     7     25      1 ;     N1 - C15   
     7     29      1 ;     N1 - C19   
     7     30      1 ;     N1 - C20   
     7     50      1 ;     N1 - H18   
     7     51      1 ;     N1 - H19   
     8     19      1 ;     N2 - C9    
     8     20      1 ;     N2 - C10   
     8     23      1 ;     N2 - C13   
     8     47      1 ;     N2 - H15   
     9     19      1 ;     N3 - C9    
     9     21      1 ;     N3 - C11   
     9     24      1 ;     N3 - C14   
     9     48      1 ;     N3 - H16   
    10     14      1 ;      C - C4    
    10     15      1 ;      C - C5    
    10     34      1 ;      C - H2    
    10     35      1 ;      C - H3    
    10     36      1 ;      C - H4    
    10     37      1 ;      C - H5    
    10     44      1 ;      C - H12   
    10     45      1 ;      C - H13   
    11     13      1 ;     C1 - C3    
    11     15      1 ;     C1 - C5    
    11     32      1 ;     C1 - H     
    11     33      1 ;     C1 - H1    
    11     36      1 ;     C1 - H4    
    11     37      1 ;     C1 - H5    
    12     13      1 ;     C2 - C3    
    12     14      1 ;     C2 - C4    
    12     32      1 ;     C2 - H     
    12     33      1 ;     C2 - H1    
    12     34      1 ;     C2 - H2    
    12     35      1 ;     C2 - H3    
    13     17      1 ;     C3 - C7    
    14     42      1 ;     C4 - H10   
    14     43      1 ;     C4 - H11   
    15     40      1 ;     C5 - H8    
    15     41      1 ;     C5 - H9    
    16     19      1 ;     C6 - C9    
    16     20      1 ;     C6 - C10   
    16     32      1 ;     C6 - H     
    16     33      1 ;     C6 - H1    
    17     21      1 ;     C7 - C11   
    17     23      1 ;     C7 - C13   
    17     26      1 ;     C7 - C16   
    17     44      1 ;     C7 - H12   
    17     45      1 ;     C7 - H13   
    17     47      1 ;     C7 - H15   
    18     20      1 ;     C8 - C10   
    18     24      1 ;     C8 - C14   
    18     25      1 ;     C8 - C15   
    18     47      1 ;     C8 - H15   
    18     48      1 ;     C8 - H16   
    19     22      1 ;     C9 - C12   
    20     46      1 ;    C10 - H14   
    20     52      1 ;    C10 - H20   
    20     53      1 ;    C10 - H21   
    20     54      1 ;    C10 - H22   
    21     46      1 ;    C11 - H14   
    21     49      1 ;    C11 - H17   
    22     23      1 ;    C12 - C13   
    22     25      1 ;    C12 - C15   
    22     26      1 ;    C12 - C16   
    23     27      1 ;    C13 - C17   
    23     28      1 ;    C13 - C18   
    23     46      1 ;    C13 - H14   
    23     49      1 ;    C13 - H17   
    24     31      1 ;    C14 - C21   
    24     55      1 ;    C14 - H23   
    27     30      1 ;    C17 - C20   
    27     48      1 ;    C17 - H16   
    27     51      1 ;    C17 - H19   
    28     29      1 ;    C18 - C19   
    28     48      1 ;    C18 - H16   
    28     50      1 ;    C18 - H18   
    29     55      1 ;    C19 - H23   
    31     50      1 ;    C21 - H18   
    31     51      1 ;    C21 - H19   
    32     38      1 ;      H - H6    
    32     39      1 ;      H - H7    
    33     38      1 ;     H1 - H6    
    33     39      1 ;     H1 - H7    
    34     40      1 ;     H2 - H8    
    34     41      1 ;     H2 - H9    
    35     40      1 ;     H3 - H8    
    35     41      1 ;     H3 - H9    
    36     42      1 ;     H4 - H10   
    36     43      1 ;     H4 - H11   
    37     42      1 ;     H5 - H10   
    37     43      1 ;     H5 - H11   
    38     44      1 ;     H6 - H12   
    38     45      1 ;     H6 - H13   
    39     44      1 ;     H7 - H12   
    39     45      1 ;     H7 - H13   
    51     55      1 ;    H19 - H23   

[ angles ]
;   ai     aj     ak    funct   theta         cth
     1     29     27      1    1.1938e+02    5.3605e+02 ;     CL - C19    - C17   
     1     29     31      1    1.1938e+02    5.3605e+02 ;     CL - C19    - C21   
     2     31     29      1    1.1896e+02    6.7404e+02 ;      F - C21    - C19   
     2     31     30      1    1.1896e+02    6.7404e+02 ;      F - C21    - C20   
     3     14     11      1    1.1009e+02    6.3948e+02 ;      O - C4     - C1    
     3     14     40      1    1.0808e+02    4.7430e+02 ;      O - C4     - H8    
     3     14     41      1    1.0808e+02    4.7430e+02 ;      O - C4     - H9    
     3     15     12      1    1.1009e+02    6.3948e+02 ;      O - C5     - C2    
     3     15     42      1    1.0808e+02    4.7430e+02 ;      O - C5     - H10   
     3     15     43      1    1.0808e+02    4.7430e+02 ;      O - C5     - H11   
     4     16     13      1    1.0762e+02    6.4802e+02 ;     O1 - C6     - C3    
     4     16     44      1    1.1034e+02    4.7028e+02 ;     O1 - C6     - H12   
     4     16     45      1    1.1034e+02    4.7028e+02 ;     O1 - C6     - H13   
     4     17     19      1    1.1911e+02    6.6107e+02 ;     O1 - C7     - C9    
     4     17     20      1    1.1911e+02    6.6107e+02 ;     O1 - C7     - C10   
     5     20     17      1    1.1911e+02    6.6107e+02 ;     O2 - C10    - C7    
     5     20     22      1    1.1911e+02    6.6107e+02 ;     O2 - C10    - C12   
     5     26     52      1    1.1034e+02    4.7028e+02 ;     O2 - C16    - H20   
     5     26     53      1    1.1034e+02    4.7028e+02 ;     O2 - C16    - H21   
     5     26     54      1    1.1034e+02    4.7028e+02 ;     O2 - C16    - H22   
     6     10     13      1    1.1308e+02    5.4308e+02 ;      N - C      - C3    
     6     10     32      1    1.1009e+02    4.0033e+02 ;      N - C      - H     
     6     10     33      1    1.1009e+02    4.0033e+02 ;      N - C      - H1    
     6     11     14      1    1.1084e+02    5.4743e+02 ;      N - C1     - C4    
     6     11     34      1    1.0963e+02    4.0041e+02 ;      N - C1     - H2    
     6     11     35      1    1.0963e+02    4.0041e+02 ;      N - C1     - H3    
     6     12     15      1    1.1084e+02    5.4743e+02 ;      N - C2     - C5    
     6     12     36      1    1.0963e+02    4.0041e+02 ;      N - C2     - H4    
     6     12     37      1    1.0963e+02    4.0041e+02 ;      N - C2     - H5    
     7     23      9      1    1.1717e+02    6.2132e+02 ;     N1 - C13    - N3    
     7     23     18      1    1.2074e+02    5.6476e+02 ;     N1 - C13    - C8    
     7     24     27      1    1.2074e+02    5.6476e+02 ;     N1 - C14    - C17   
     7     24     28      1    1.2074e+02    5.6476e+02 ;     N1 - C14    - C18   
     8     21     18      1    1.2294e+02    5.7045e+02 ;     N2 - C11    - C8    
     8     21     22      1    1.2294e+02    5.7045e+02 ;     N2 - C11    - C12   
     8     25      9      1    1.2730e+02    6.0886e+02 ;     N2 - C15    - N3    
     8     25     49      1    1.1579e+02    4.1974e+02 ;     N2 - C15    - H17   
     9     23     18      1    1.2294e+02    5.7045e+02 ;     N3 - C13    - C8    
     9     25     49      1    1.1579e+02    4.1974e+02 ;     N3 - C15    - H17   
    10      6     11      1    1.1238e+02    6.5003e+02 ;      C - N      - C1    
    10      6     12      1    1.1238e+02    6.5003e+02 ;      C - N      - C2    
    10     13     16      1    1.1263e+02    5.0099e+02 ;      C - C3     - C6    
    10     13     38      1    1.0968e+02    3.6208e+02 ;      C - C3     - H6    
    10     13     39      1    1.0968e+02    3.6208e+02 ;      C - C3     - H7    
    11      6     12      1    1.1070e+02    6.5429e+02 ;     C1 - N      - C2    
    11     14     40      1    1.0918e+02    3.6217e+02 ;     C1 - C4     - H8    
    11     14     41      1    1.0918e+02    3.6217e+02 ;     C1 - C4     - H9    
    12     15     42      1    1.0918e+02    3.6217e+02 ;     C2 - C5     - H10   
    12     15     43      1    1.0918e+02    3.6217e+02 ;     C2 - C5     - H11   
    13     10     32      1    1.0959e+02    3.6217e+02 ;     C3 - C      - H     
    13     10     33      1    1.0959e+02    3.6217e+02 ;     C3 - C      - H1    
    13     16     44      1    1.0959e+02    3.6217e+02 ;     C3 - C6     - H12   
    13     16     45      1    1.0959e+02    3.6217e+02 ;     C3 - C6     - H13   
    14      3     15      1    1.1330e+02    7.3873e+02 ;     C4 - O      - C5    
    14     11     34      1    1.0918e+02    3.6217e+02 ;     C4 - C1     - H2    
    14     11     35      1    1.0918e+02    3.6217e+02 ;     C4 - C1     - H3    
    15     12     36      1    1.0918e+02    3.6217e+02 ;     C5 - C2     - H4    
    15     12     37      1    1.0918e+02    3.6217e+02 ;     C5 - C2     - H5    
    16      4     17      1    1.1839e+02    7.3856e+02 ;     C6 - O1     - C7    
    16     13     38      1    1.0968e+02    3.6208e+02 ;     C6 - C3     - H6    
    16     13     39      1    1.0968e+02    3.6208e+02 ;     C6 - C3     - H7    
    17     19     18      1    1.2002e+02    5.3279e+02 ;     C7 - C9     - C8    
    17     19     46      1    1.1988e+02    3.7572e+02 ;     C7 - C9     - H14   
    17     20     22      1    1.2002e+02    5.3279e+02 ;     C7 - C10    - C12   
    18     19     46      1    1.1988e+02    3.7572e+02 ;     C8 - C9     - H14   
    18     21     22      1    1.2002e+02    5.3279e+02 ;     C8 - C11    - C12   
    19     17     20      1    1.2002e+02    5.3279e+02 ;     C9 - C7     - C10   
    19     18     21      1    1.2002e+02    5.3279e+02 ;     C9 - C8     - C11   
    19     18     23      1    1.2002e+02    5.3279e+02 ;     C9 - C8     - C13   
    20      5     26      1    1.1839e+02    7.3856e+02 ;    C10 - O2     - C16   
    20     22     21      1    1.2002e+02    5.3279e+02 ;    C10 - C12    - C11   
    20     22     47      1    1.1988e+02    3.7572e+02 ;    C10 - C12    - H15   
    21      8     25      1    1.1724e+02    6.9580e+02 ;    C11 - N2     - C15   
    21     18     23      1    1.2002e+02    5.3279e+02 ;    C11 - C8     - C13   
    21     22     47      1    1.1988e+02    3.7572e+02 ;    C11 - C12    - H15   
    23      7     24      1    1.3028e+02    6.3396e+02 ;    C13 - N1     - C14   
    23      7     48      1    1.1473e+02    4.8083e+02 ;    C13 - N1     - H16   
    23      9     25      1    1.1724e+02    6.9580e+02 ;    C13 - N3     - C15   
    24      7     48      1    1.1473e+02    4.8083e+02 ;    C14 - N1     - H16   
    24     27     29      1    1.2002e+02    5.3279e+02 ;    C14 - C17    - C19   
    24     27     50      1    1.1988e+02    3.7572e+02 ;    C14 - C17    - H18   
    24     28     30      1    1.2002e+02    5.3279e+02 ;    C14 - C18    - C20   
    24     28     51      1    1.1988e+02    3.7572e+02 ;    C14 - C18    - H19   
    27     24     28      1    1.2002e+02    5.3279e+02 ;    C17 - C14    - C18   
    27     29     31      1    1.2002e+02    5.3279e+02 ;    C17 - C19    - C21   
    28     30     31      1    1.2002e+02    5.3279e+02 ;    C18 - C20    - C21   
    28     30     55      1    1.1988e+02    3.7572e+02 ;    C18 - C20    - H23   
    29     27     50      1    1.1988e+02    3.7572e+02 ;    C19 - C17    - H18   
    29     31     30      1    1.2002e+02    5.3279e+02 ;    C19 - C21    - C20   
    30     28     51      1    1.1988e+02    3.7572e+02 ;    C20 - C18    - H19   
    31     30     55      1    1.1988e+02    3.7572e+02 ;    C21 - C20    - H23   
    32     10     33      1    1.0855e+02    2.9824e+02 ;      H - C      - H1    
    34     11     35      1    1.0750e+02    2.9932e+02 ;     H2 - C1     - H3    
    36     12     37      1    1.0750e+02    2.9932e+02 ;     H4 - C2     - H5    
    38     13     39      1    1.0773e+02    2.9957e+02 ;     H6 - C3     - H7    
    40     14     41      1    1.0750e+02    2.9932e+02 ;     H8 - C4     - H9    
    42     15     43      1    1.0750e+02    2.9932e+02 ;    H10 - C5     - H11   
    44     16     45      1    1.0855e+02    2.9824e+02 ;    H12 - C6     - H13   
    52     26     53      1    1.0855e+02    2.9824e+02 ;    H20 - C16    - H21   
    52     26     54      1    1.0855e+02    2.9824e+02 ;    H20 - C16    - H22   
    53     26     54      1    1.0855e+02    2.9824e+02 ;    H21 - C16    - H22   

[ dihedrals ] ; propers
; for gromacs 4.5 or higher, using funct 9
;    i      j      k      l   func   phase     kd      pn
     1     29     27     24      9   180.00  15.16700   2 ;     CL-   C19-   C17-   C14
     1     29     27     50      9   180.00  15.16700   2 ;     CL-   C19-   C17-   H18
     1     29     31      2      9   180.00  15.16700   2 ;     CL-   C19-   C21-     F
     1     29     31     30      9   180.00  15.16700   2 ;     CL-   C19-   C21-   C20
     2     31     29     27      9   180.00  15.16700   2 ;      F-   C21-   C19-   C17
     2     31     30     28      9   180.00  15.16700   2 ;      F-   C21-   C20-   C18
     2     31     30     55      9   180.00  15.16700   2 ;      F-   C21-   C20-   H23
     3     14     11      6      9     0.00   0.65084   3 ;      O-    C4-    C1-     N
     3     14     11     34      9     0.00   0.00000   0 ;      O-    C4-    C1-    H2
     3     14     11     34      9     0.00   1.04600   1 ;      O-    C4-    C1-    H2
     3     14     11     35      9     0.00   0.00000   0 ;      O-    C4-    C1-    H3
     3     14     11     35      9     0.00   1.04600   1 ;      O-    C4-    C1-    H3
     3     15     12      6      9     0.00   0.65084   3 ;      O-    C5-    C2-     N
     3     15     12     36      9     0.00   0.00000   0 ;      O-    C5-    C2-    H4
     3     15     12     36      9     0.00   1.04600   1 ;      O-    C5-    C2-    H4
     3     15     12     37      9     0.00   0.00000   0 ;      O-    C5-    C2-    H5
     3     15     12     37      9     0.00   1.04600   1 ;      O-    C5-    C2-    H5
     4     16     13     10      9     0.00   0.65084   3 ;     O1-    C6-    C3-     C
     4     16     13     38      9     0.00   0.00000   0 ;     O1-    C6-    C3-    H6
     4     16     13     38      9     0.00   1.04600   1 ;     O1-    C6-    C3-    H6
     4     16     13     39      9     0.00   0.00000   0 ;     O1-    C6-    C3-    H7
     4     16     13     39      9     0.00   1.04600   1 ;     O1-    C6-    C3-    H7
     4     17     19     18      9   180.00  15.16700   2 ;     O1-    C7-    C9-    C8
     4     17     19     46      9   180.00  15.16700   2 ;     O1-    C7-    C9-   H14
     4     17     20      5      9   180.00  15.16700   2 ;     O1-    C7-   C10-    O2
     4     17     20     22      9   180.00  15.16700   2 ;     O1-    C7-   C10-   C12
     5     20     17     19      9   180.00  15.16700   2 ;     O2-   C10-    C7-    C9
     5     20     22     21      9   180.00  15.16700   2 ;     O2-   C10-   C12-   C11
     5     20     22     47      9   180.00  15.16700   2 ;     O2-   C10-   C12-   H15
     6     10     13     16      9     0.00   0.87864   3 ;      N-     C-    C3-    C6
     6     10     13     38      9     0.00   0.41840   3 ;      N-     C-    C3-    H6
     6     10     13     39      9     0.00   0.41840   3 ;      N-     C-    C3-    H7
     6     11     14     40      9     0.00   0.65084   3 ;      N-    C1-    C4-    H8
     6     11     14     41      9     0.00   0.65084   3 ;      N-    C1-    C4-    H9
     6     12     15     42      9     0.00   0.65084   3 ;      N-    C2-    C5-   H10
     6     12     15     43      9     0.00   0.65084   3 ;      N-    C2-    C5-   H11
     7     23      9     25      9   180.00  20.08320   2 ;     N1-   C13-    N3-   C15
     7     23     18     19      9   180.00  15.16700   2 ;     N1-   C13-    C8-    C9
     7     23     18     21      9   180.00  15.16700   2 ;     N1-   C13-    C8-   C11
     7     24     27     29      9   180.00  15.16700   2 ;     N1-   C14-   C17-   C19
     7     24     27     50      9   180.00  15.16700   2 ;     N1-   C14-   C17-   H18
     7     24     28     30      9   180.00  15.16700   2 ;     N1-   C14-   C18-   C20
     7     24     28     51      9   180.00  15.16700   2 ;     N1-   C14-   C18-   H19
     8     21     18     19      9   180.00  15.16700   2 ;     N2-   C11-    C8-    C9
     8     21     18     23      9   180.00  15.16700   2 ;     N2-   C11-    C8-   C13
     8     21     22     20      9   180.00  15.16700   2 ;     N2-   C11-   C12-   C10
     8     21     22     47      9   180.00  15.16700   2 ;     N2-   C11-   C12-   H15
     8     25      9     23      9   180.00  20.08320   2 ;     N2-   C15-    N3-   C13
     9     23      7     24      9   180.00   4.39320   2 ;     N3-   C13-    N1-   C14
     9     23      7     48      9   180.00   4.39320   2 ;     N3-   C13-    N1-   H16
     9     23     18     19      9   180.00  15.16700   2 ;     N3-   C13-    C8-    C9
     9     23     18     21      9   180.00  15.16700   2 ;     N3-   C13-    C8-   C11
     9     25      8     21      9   180.00  20.08320   2 ;     N3-   C15-    N2-   C11
    10      6     11     14      9     0.00   3.05432   3 ;      C-     N-    C1-    C4
    10      6     11     34      9     0.00   0.94140   3 ;      C-     N-    C1-    H2
    10      6     11     35      9     0.00   0.94140   3 ;      C-     N-    C1-    H3
    10      6     12     15      9     0.00   3.05432   3 ;      C-     N-    C2-    C5
    10      6     12     36      9     0.00   0.94140   3 ;      C-     N-    C2-    H4
    10      6     12     37      9     0.00   0.94140   3 ;      C-     N-    C2-    H5
    10     13     16     44      9     0.00   0.65084   3 ;      C-    C3-    C6-   H12
    10     13     16     45      9     0.00   0.65084   3 ;      C-    C3-    C6-   H13
    11      6     10     13      9     0.00   3.05432   3 ;     C1-     N-     C-    C3
    11      6     10     32      9     0.00   0.94140   3 ;     C1-     N-     C-     H
    11      6     10     33      9     0.00   0.94140   3 ;     C1-     N-     C-    H1
    11      6     12     15      9     0.00   3.05432   3 ;     C1-     N-    C2-    C5
    11      6     12     36      9     0.00   0.94140   3 ;     C1-     N-    C2-    H4
    11      6     12     37      9     0.00   0.94140   3 ;     C1-     N-    C2-    H5
    11     14      3     15      9     0.00   4.85344   3 ;     C1-    C4-     O-    C5
    11     14      3     15      9     0.00   5.77392   2 ;     C1-    C4-     O-    C5
    11     14      3     15      9   180.00   1.46440   1 ;     C1-    C4-     O-    C5
    12      6     10     13      9     0.00   3.05432   3 ;     C2-     N-     C-    C3
    12      6     10     32      9     0.00   0.94140   3 ;     C2-     N-     C-     H
    12      6     10     33      9     0.00   0.94140   3 ;     C2-     N-     C-    H1
    12      6     11     14      9     0.00   3.05432   3 ;     C2-     N-    C1-    C4
    12      6     11     34      9     0.00   0.94140   3 ;     C2-     N-    C1-    H2
    12      6     11     35      9     0.00   0.94140   3 ;     C2-     N-    C1-    H3
    12     15      3     14      9     0.00   4.85344   3 ;     C2-    C5-     O-    C4
    12     15      3     14      9     0.00   5.77392   2 ;     C2-    C5-     O-    C4
    12     15      3     14      9   180.00   1.46440   1 ;     C2-    C5-     O-    C4
    13     16      4     17      9     0.00   1.60387   3 ;     C3-    C6-    O1-    C7
    14      3     15     42      9     0.00   1.41001   3 ;     C4-     O-    C5-   H10
    14      3     15     43      9     0.00   1.41001   3 ;     C4-     O-    C5-   H11
    15      3     14     40      9     0.00   1.41001   3 ;     C5-     O-    C4-    H8
    15      3     14     41      9     0.00   1.41001   3 ;     C5-     O-    C4-    H9
    16      4     17     19      9   180.00   6.94544   2 ;     C6-    O1-    C7-    C9
    16      4     17     20      9   180.00   6.94544   2 ;     C6-    O1-    C7-   C10
    16     13     10     32      9     0.00   0.65084   3 ;     C6-    C3-     C-     H
    16     13     10     33      9     0.00   0.65084   3 ;     C6-    C3-     C-    H1
    17      4     16     44      9     0.00   1.60387   3 ;     C7-    O1-    C6-   H12
    17      4     16     45      9     0.00   1.60387   3 ;     C7-    O1-    C6-   H13
    17     19     18     21      9   180.00  15.16700   2 ;     C7-    C9-    C8-   C11
    17     19     18     23      9   180.00  15.16700   2 ;     C7-    C9-    C8-   C13
    17     20      5     26      9   180.00   6.94544   2 ;     C7-   C10-    O2-   C16
    17     20     22     21      9   180.00  15.16700   2 ;     C7-   C10-   C12-   C11
    17     20     22     47      9   180.00  15.16700   2 ;     C7-   C10-   C12-   H15
    18     19     17     20      9   180.00  15.16700   2 ;     C8-    C9-    C7-   C10
    18     21      8     25      9   180.00  20.08320   2 ;     C8-   C11-    N2-   C15
    18     21     22     20      9   180.00  15.16700   2 ;     C8-   C11-   C12-   C10
    18     21     22     47      9   180.00  15.16700   2 ;     C8-   C11-   C12-   H15
    18     23      7     24      9   180.00   3.34720   2 ;     C8-   C13-    N1-   C14
    18     23      7     48      9   180.00   4.39320   2 ;     C8-   C13-    N1-   H16
    18     23      9     25      9   180.00  20.08320   2 ;     C8-   C13-    N3-   C15
    19     17     20     22      9   180.00  15.16700   2 ;     C9-    C7-   C10-   C12
    19     18     21     22      9   180.00  15.16700   2 ;     C9-    C8-   C11-   C12
    20      5     26     52      9     0.00   1.60387   3 ;    C10-    O2-   C16-   H20
    20      5     26     53      9     0.00   1.60387   3 ;    C10-    O2-   C16-   H21
    20      5     26     54      9     0.00   1.60387   3 ;    C10-    O2-   C16-   H22
    20     17     19     46      9   180.00  15.16700   2 ;    C10-    C7-    C9-   H14
    21      8     25     49      9   180.00  20.08320   2 ;    C11-    N2-   C15-   H17
    21     18     19     46      9   180.00  15.16700   2 ;    C11-    C8-    C9-   H14
    22     20      5     26      9   180.00   6.94544   2 ;    C12-   C10-    O2-   C16
    22     21      8     25      9   180.00  20.08320   2 ;    C12-   C11-    N2-   C15
    22     21     18     23      9   180.00  15.16700   2 ;    C12-   C11-    C8-   C13
    23      7     24     27      9   180.00   3.34720   2 ;    C13-    N1-   C14-   C17
    23      7     24     28      9   180.00   3.34720   2 ;    C13-    N1-   C14-   C18
    23      9     25     49      9   180.00  20.08320   2 ;    C13-    N3-   C15-   H17
    23     18     19     46      9   180.00  15.16700   2 ;    C13-    C8-    C9-   H14
    24     27     29     31      9   180.00  15.16700   2 ;    C14-   C17-   C19-   C21
    24     28     30     31      9   180.00  15.16700   2 ;    C14-   C18-   C20-   C21
    24     28     30     55      9   180.00  15.16700   2 ;    C14-   C18-   C20-   H23
    27     24      7     48      9   180.00   4.39320   2 ;    C17-   C14-    N1-   H16
    27     24     28     30      9   180.00  15.16700   2 ;    C17-   C14-   C18-   C20
    27     24     28     51      9   180.00  15.16700   2 ;    C17-   C14-   C18-   H19
    27     29     31     30      9   180.00  15.16700   2 ;    C17-   C19-   C21-   C20
    28     24      7     48      9   180.00   4.39320   2 ;    C18-   C14-    N1-   H16
    28     24     27     29      9   180.00  15.16700   2 ;    C18-   C14-   C17-   C19
    28     24     27     50      9   180.00  15.16700   2 ;    C18-   C14-   C17-   H18
    28     30     31     29      9   180.00  15.16700   2 ;    C18-   C20-   C21-   C19
    29     31     30     55      9   180.00  15.16700   2 ;    C19-   C21-   C20-   H23
    31     29     27     50      9   180.00  15.16700   2 ;    C21-   C19-   C17-   H18
    31     30     28     51      9   180.00  15.16700   2 ;    C21-   C20-   C18-   H19
    32     10     13     38      9     0.00   0.65084   3 ;      H-     C-    C3-    H6
    32     10     13     39      9     0.00   0.65084   3 ;      H-     C-    C3-    H7
    33     10     13     38      9     0.00   0.65084   3 ;     H1-     C-    C3-    H6
    33     10     13     39      9     0.00   0.65084   3 ;     H1-     C-    C3-    H7
    34     11     14     40      9     0.00   0.65084   3 ;     H2-    C1-    C4-    H8
    34     11     14     41      9     0.00   0.65084   3 ;     H2-    C1-    C4-    H9
    35     11     14     40      9     0.00   0.65084   3 ;     H3-    C1-    C4-    H8
    35     11     14     41      9     0.00   0.65084   3 ;     H3-    C1-    C4-    H9
    36     12     15     42      9     0.00   0.65084   3 ;     H4-    C2-    C5-   H10
    36     12     15     43      9     0.00   0.65084   3 ;     H4-    C2-    C5-   H11
    37     12     15     42      9     0.00   0.65084   3 ;     H5-    C2-    C5-   H10
    37     12     15     43      9     0.00   0.65084   3 ;     H5-    C2-    C5-   H11
    38     13     16     44      9     0.00   0.65084   3 ;     H6-    C3-    C6-   H12
    38     13     16     45      9     0.00   0.65084   3 ;     H6-    C3-    C6-   H13
    39     13     16     44      9     0.00   0.65084   3 ;     H7-    C3-    C6-   H12
    39     13     16     45      9     0.00   0.65084   3 ;     H7-    C3-    C6-   H13
    51     28     30     55      9   180.00  15.16700   2 ;    H19-   C18-   C20-   H23

[ dihedrals ] ; impropers
; treated as propers in GROMACS to use correct AMBER analytical function
;    i      j      k      l   func   phase     kd      pn
     1     29     31     27      4   180.00   4.60240   2 ;     CL-   C19-   C21-   C17
    17     18     19     46      4   180.00   4.60240   2 ;     C7-    C8-    C9-   H14
    17     22     20      5      4   180.00   4.60240   2 ;     C7-   C12-   C10-    O2
    18      9     23      7      4   180.00   4.60240   2 ;     C8-    N3-   C13-    N1
    18     22     21      8      4   180.00   4.60240   2 ;     C8-   C12-   C11-    N2
    19     20     17      4      4   180.00   4.60240   2 ;     C9-   C10-    C7-    O1
    19     21     18     23      4   180.00   4.60240   2 ;     C9-   C11-    C8-   C13
    20     21     22     47      4   180.00   4.60240   2 ;    C10-   C11-   C12-   H15
    23     24      7     48      4   180.00   4.60240   2 ;    C13-   C14-    N1-   H16
    24     29     27     50      4   180.00   4.60240   2 ;    C14-   C19-   C17-   H18
    24     30     28     51      4   180.00   4.60240   2 ;    C14-   C20-   C18-   H19
    27     28     24      7      4   180.00   4.60240   2 ;    C17-   C18-   C14-    N1
    28     31     30     55      4   180.00   4.60240   2 ;    C18-   C21-   C20-   H23
    29     30     31      2      4   180.00   4.60240   2 ;    C19-   C20-   C21-     F
    49      8     25      9      4   180.00   4.60240   2 ;    H17-    N2-   C15-    N3
