Gyas ROwers Mature At Cryogenic Speed
   55
    1LIG1     N    1   2.119  -0.060   5.315
    1LIG1    N1    2   2.494   0.204   5.221
    1LIG1    N2    3   2.412   0.425   4.871
    1LIG1    N3    4   2.570   0.326   5.027
    1LIG1     C    5   2.006   0.016   5.370
    1LIG1    C1    6   2.225  -0.066   5.415
    1LIG1    C2    7   2.078  -0.197   5.286
    1LIG1    C3    8   1.896   0.041   5.268
    1LIG1    C4    9   2.341  -0.148   5.363
    1LIG1    C5   10   2.198  -0.277   5.236
    1LIG1    C6   11   1.948   0.114   5.145
    1LIG1    C7   12   2.092   0.288   5.102
    1LIG1    C8   13   2.332   0.307   5.069
    1LIG1    C9   14   2.222   0.262   5.145
    1LIG1   C10   15   2.069   0.359   4.984
    1LIG1   C11   16   2.309   0.380   4.948
    1LIG1   C12   17   2.177   0.404   4.907
    1LIG1   C13   18   2.467   0.281   5.105
    1LIG1   C14   19   2.609   0.127   5.252
    1LIG1   C15   20   2.537   0.396   4.915
    1LIG1   C16   21   1.890   0.498   4.996
    1LIG1   C17   22   2.649   0.115   5.385
    1LIG1   C18   23   2.685   0.064   5.152
    1LIG1   C19   24   2.761   0.038   5.419
    1LIG1   C20   25   2.795  -0.014   5.185
    1LIG1   C21   26   2.833  -0.027   5.319
    1LIG1     O   27   2.300  -0.282   5.336
    1LIG1    O1   28   1.988   0.246   5.184
    1LIG1    O2   29   1.941   0.380   4.934
    1LIG1    CL   30   2.807   0.024   5.584
    1LIG1     F   31   2.938  -0.104   5.350
    1LIG1     H   32   2.043   0.112   5.407
    1LIG1    H1   33   1.964  -0.037   5.457
    1LIG1    H2   34   2.186  -0.111   5.506
    1LIG1    H3   35   2.260   0.035   5.438
    1LIG1    H4   36   2.001  -0.199   5.209
    1LIG1    H5   37   2.038  -0.243   5.377
    1LIG1    H6   38   1.819   0.102   5.316
    1LIG1    H7   39   1.849  -0.053   5.238
    1LIG1    H8   40   2.421  -0.152   5.437
    1LIG1    H9   41   2.383  -0.105   5.271
    1LIG1   H10   42   2.239  -0.234   5.145
    1LIG1   H11   43   2.167  -0.380   5.214
    1LIG1   H12   44   1.867   0.124   5.071
    1LIG1   H13   45   2.029   0.057   5.099
    1LIG1   H14   46   2.237   0.207   5.237
    1LIG1   H15   47   2.158   0.458   4.815
    1LIG1   H16   48   2.433   0.223   5.300
    1LIG1   H17   49   2.619   0.433   4.855
    1LIG1   H18   50   2.594   0.166   5.464
    1LIG1   H19   51   2.656   0.072   5.048
    1LIG1   H20   52   1.953   0.584   4.972
    1LIG1   H21   53   1.883   0.485   5.105
    1LIG1   H22   54   1.790   0.516   4.957
    1LIG1   H23   55   2.851  -0.065   5.107
   0.00000   0.00000   0.00000
