;  ----
; Built RTF for smiles_corr_0.mol2
;    by user SwissParam     Tue 12 May 2026 05:37:36 CEST
; ---- 
;

[ atomtypes ] 
; name at.num  mass   charge  ptype    sigma            epsilon 
CR      6   12.0110  0.0  A         0.358141    0.234304  
OR      8   15.9994  0.0  A         0.315378    0.636386  
CB      6   12.0110  0.0  A         0.355005    0.292880  
NPYD    7   14.0067  0.0  A         0.329632    0.836800  
NC=C    7   14.0067  0.0  A         0.329632    0.836800  
CSP     6   12.0110  0.0  A         0.372396    0.284512  
HCMM    1    1.0079  0.0  A         0.235197    0.092048  
HNCO    1    1.0079  0.0  A         0.040001    0.192464  

[ pairtypes ] 
;  i     j    func     sigma1-4       epsilon1-4 ; THESE ARE 1-4 INTERACTIONS
CR       CR     1      0.338541    0.041840 
CR       OR     1      0.326960    0.163176 
CR       CB     1      0.346773    0.110698 
CR       NPYD   1      0.334087    0.187114 
CR       NC=C   1      0.334087    0.187114 
CR       CSP    1      0.355469    0.109105 
CR       HCMM   1      0.286869    0.062059 
CR       HNCO   1      0.189271    0.089737 


[ moleculetype ]
; Name nrexcl 
LIG 3

[ atoms ] 
; nr type resnr resid atom cgnr charge mass
   1 CR   1  LIG C1      1  0.2800  12.0110 
   2 OR   1  LIG O1      2 -0.5600  15.9994 
   3 CR   1  LIG C2      3  0.2800  12.0110 
   4 CR   1  LIG C3      4  0.2800  12.0110 
   5 OR   1  LIG O2      5 -0.3625  15.9994 
   6 CB   1  LIG C4      6  0.0825  12.0110 
   7 CB   1  LIG C5      7 -0.1500  12.0110 
   8 CB   1  LIG C6      8  0.3100  12.0110 
   9 NPYD 1  LIG N1      9 -0.6200  14.0067 
  10 CB   1  LIG C7     10  0.4700  12.0110 
  11 NPYD 1  LIG N2     11 -0.6200  14.0067 
  12 CB   1  LIG C8     12  0.4100  12.0110 
  13 NC=C 1  LIG N3     13 -0.6000  14.0067 
  14 CB   1  LIG C9     14  0.1000  12.0110 
  15 CB   1  LIG C10    15 -0.1500  12.0110 
  16 CB   1  LIG C11    16 -0.1500  12.0110 
  17 CB   1  LIG C12    17 -0.1500  12.0110 
  18 CB   1  LIG C13    18  0.0730  12.0110 
  19 CB   1  LIG C14    19 -0.1500  12.0110 
  20 CSP  1  LIG C15    20 -0.0730  12.0110 
  21 CSP  1  LIG C16    21 -0.1770  12.0110 
  22 CB   1  LIG C17    22  0.0000  12.0110 
  23 CB   1  LIG C18    23 -0.1500  12.0110 
  24 CB   1  LIG C19    24  0.0825  12.0110 
  25 OR   1  LIG O3     25 -0.3625  15.9994 
  26 CR   1  LIG C20    26  0.2800  12.0110 
  27 CR   1  LIG C21    27  0.2800  12.0110 
  28 OR   1  LIG O4     28 -0.5600  15.9994 
  29 CR   1  LIG C22    29  0.2800  12.0110 
  30 HCMM 1  LIG H1     30  0.0000   1.0079 
  31 HCMM 1  LIG H2     31  0.0000   1.0079 
  32 HCMM 1  LIG H3     32  0.0000   1.0079 
  33 HCMM 1  LIG H4     33  0.0000   1.0079 
  34 HCMM 1  LIG H5     34  0.0000   1.0079 
  35 HCMM 1  LIG H6     35  0.0000   1.0079 
  36 HCMM 1  LIG H7     36  0.0000   1.0079 
  37 HCMM 1  LIG H8     37  0.1500   1.0079 
  38 HCMM 1  LIG H9     38  0.1500   1.0079 
  39 HNCO 1  LIG H10    39  0.4000   1.0079 
  40 HCMM 1  LIG H11    40  0.1500   1.0079 
  41 HCMM 1  LIG H12    41  0.1500   1.0079 
  42 HCMM 1  LIG H13    42  0.1500   1.0079 
  43 HCMM 1  LIG H14    43  0.1500   1.0079 
  44 HCMM 1  LIG H15    44  0.1770   1.0079 
  45 HCMM 1  LIG H16    45  0.1500   1.0079 
  46 HCMM 1  LIG H17    46  0.0000   1.0079 
  47 HCMM 1  LIG H18    47  0.0000   1.0079 
  48 HCMM 1  LIG H19    48  0.0000   1.0079 
  49 HCMM 1  LIG H20    49  0.0000   1.0079 
  50 HCMM 1  LIG H21    50  0.0000   1.0079 
  51 HCMM 1  LIG H22    51  0.0000   1.0079 
  52 HCMM 1  LIG H23    52  0.0000   1.0079 

[ bonds ]
; ai aj fu b0 kb, b0 kb
  1   2 1 0.14180  303937.5  0.14180  303937.5 
  2   3 1 0.14180  303937.5  0.14180  303937.5 
  3   4 1 0.15080  256422.3  0.15080  256422.3 
  4   5 1 0.14180  303937.5  0.14180  303937.5 
  5   6 1 0.13760  338083.1  0.13760  338083.1 
  6   7 1 0.13740  335613.7  0.13740  335613.7 
  7   8 1 0.13740  335613.7  0.13740  335613.7 
  8   9 1 0.13330  345489.6  0.13330  345489.6 
  9  10 1 0.13330  345489.6  0.13330  345489.6 
 10  11 1 0.13330  345489.6  0.13330  345489.6 
 11  12 1 0.13330  345489.6  0.13330  345489.6 
 12  13 1 0.13980  371445.5  0.13980  371445.5 
 13  14 1 0.13980  371445.5  0.13980  371445.5 
 14  15 1 0.13740  335613.7  0.13740  335613.7 
 15  16 1 0.13740  335613.7  0.13740  335613.7 
 16  17 1 0.13740  335613.7  0.13740  335613.7 
 17  18 1 0.13740  335613.7  0.13740  335613.7 
 18  19 1 0.13740  335613.7  0.13740  335613.7 
 14  19 1 0.13740  335613.7  0.13740  335613.7 
 18  20 1 0.14240  327905.1  0.14240  327905.1 
 20  21 1 0.12000  915726.1  0.12000  915726.1 
 12  22 1 0.13740  335613.7  0.13740  335613.7 
  8  22 1 0.13740  335613.7  0.13740  335613.7 
 22  23 1 0.13740  335613.7  0.13740  335613.7 
 23  24 1 0.13740  335613.7  0.13740  335613.7 
  6  24 1 0.13740  335613.7  0.13740  335613.7 
 24  25 1 0.13760  338083.1  0.13760  338083.1 
 25  26 1 0.14180  303937.5  0.14180  303937.5 
 26  27 1 0.15080  256422.3  0.15080  256422.3 
 27  28 1 0.14180  303937.5  0.14180  303937.5 
 28  29 1 0.14180  303937.5  0.14180  303937.5 
  1  30 1 0.10930  287014.9  0.10930  287014.9 
  1  31 1 0.10930  287014.9  0.10930  287014.9 
  1  32 1 0.10930  287014.9  0.10930  287014.9 
  3  33 1 0.10930  287014.9  0.10930  287014.9 
  3  34 1 0.10930  287014.9  0.10930  287014.9 
  4  35 1 0.10930  287014.9  0.10930  287014.9 
  4  36 1 0.10930  287014.9  0.10930  287014.9 
  7  37 1 0.10840  319534.6  0.10840  319534.6 
 10  38 1 0.10840  319534.6  0.10840  319534.6 
 13  39 1 0.10180  396015.6  0.10180  396015.6 
 15  40 1 0.10840  319534.6  0.10840  319534.6 
 16  41 1 0.10840  319534.6  0.10840  319534.6 
 17  42 1 0.10840  319534.6  0.10840  319534.6 
 19  43 1 0.10840  319534.6  0.10840  319534.6 
 21  44 1 0.10650  344827.7  0.10650  344827.7 
 23  45 1 0.10840  319534.6  0.10840  319534.6 
 26  46 1 0.10930  287014.9  0.10930  287014.9 
 26  47 1 0.10930  287014.9  0.10930  287014.9 
 27  48 1 0.10930  287014.9  0.10930  287014.9 
 27  49 1 0.10930  287014.9  0.10930  287014.9 
 29  50 1 0.10930  287014.9  0.10930  287014.9 
 29  51 1 0.10930  287014.9  0.10930  287014.9 
 29  52 1 0.10930  287014.9  0.10930  287014.9 


[ pairs ]
; ai aj fu
  1   4 1  
  1  33 1  
  1  34 1  
  2   5 1  
  2  35 1  
  2  36 1  
  3  30 1  
  3  31 1  
  3  32 1  
  3   6 1  
  4   7 1  
  4  24 1  
  5  33 1  
  5  34 1  
  5   8 1  
  5  37 1  
  5  23 1  
  5  25 1  
  6  35 1  
  6  36 1  
  6   9 1  
  6  22 1  
  6  45 1  
  6  26 1  
  7  23 1  
  7  25 1  
  7  10 1  
  7  12 1  
  8  24 1  
  8  11 1  
  8  38 1  
  8  13 1  
  8  45 1  
  9  37 1  
  9  12 1  
  9  23 1  
 10  22 1  
 10  13 1  
 11  14 1  
 11  39 1  
 11  23 1  
 12  38 1  
 12  15 1  
 12  19 1  
 12  24 1  
 12  45 1  
 13  23 1  
 13  16 1  
 13  40 1  
 13  18 1  
 13  43 1  
 14  22 1  
 14  17 1  
 14  41 1  
 14  20 1  
 15  39 1  
 15  18 1  
 15  43 1  
 15  42 1  
 16  19 1  
 16  20 1  
 17  40 1  
 17  43 1  
 17  21 1  
 18  41 1  
 18  44 1  
 19  39 1  
 19  40 1  
 19  42 1  
 19  21 1  
 20  42 1  
 20  43 1  
 22  37 1  
 22  39 1  
 22  25 1  
 23  26 1  
 24  37 1  
 24  27 1  
 24  46 1  
 24  47 1  
 25  45 1  
 25  28 1  
 25  48 1  
 25  49 1  
 26  29 1  
 27  50 1  
 27  51 1  
 27  52 1  
 28  46 1  
 28  47 1  
 29  48 1  
 29  49 1  
 33  35 1  
 33  36 1  
 34  35 1  
 34  36 1  
 40  41 1  
 41  42 1  
 46  48 1  
 46  49 1  
 47  48 1  
 47  49 1  


[ angles ] 
; ai aj ak fu th0 kth ub0 kub th0 kth ub0 kub
  2   1  30 1  108.5770  470.32    108.5770  470.32 
  2   1  31 1  108.5770  470.32    108.5770  470.32 
  2   1  32 1  108.5770  470.32    108.5770  470.32 
 30   1  31 1  108.8360  310.74    108.8360  310.74 
 30   1  32 1  108.8360  310.74    108.8360  310.74 
 31   1  32 1  108.8360  310.74    108.8360  310.74 
  1   2   3 1  106.9260  720.84    106.9260  720.84 
  2   3   4 1  108.1330  597.39    108.1330  597.39 
  2   3  33 1  108.5770  470.32    108.5770  470.32 
  2   3  34 1  108.5770  470.32    108.5770  470.32 
  4   3  33 1  110.5490  383.00    110.5490  383.00 
  4   3  34 1  110.5490  383.00    110.5490  383.00 
 33   3  34 1  108.8360  310.74    108.8360  310.74 
  3   4   5 1  108.1330  597.39    108.1330  597.39 
  3   4  35 1  110.5490  383.00    110.5490  383.00 
  3   4  36 1  110.5490  383.00    110.5490  383.00 
  5   4  35 1  108.5770  470.32    108.5770  470.32 
  5   4  36 1  108.5770  470.32    108.5770  470.32 
 35   4  36 1  108.8360  310.74    108.8360  310.74 
  4   5   6 1  102.8460  647.37    102.8460  647.37 
  5   6   7 1  116.4950  582.94    116.4950  582.94 
  5   6  24 1  116.4950  582.94    116.4950  582.94 
  7   6  24 1  119.9770  402.88    119.9770  402.88 
  6   7   8 1  119.9770  402.88    119.9770  402.88 
  6   7  37 1  120.5710  339.05    120.5710  339.05 
  8   7  37 1  120.5710  339.05    120.5710  339.05 
  7   8   9 1  126.1390  358.92    126.1390  358.92 
  7   8  22 1  119.9770  402.88    119.9770  402.88 
  9   8  22 1  126.1390  358.92    126.1390  358.92 
  8   9  10 1  115.4060  653.40    115.4060  653.40 
  9  10  11 1  128.9380  436.60    128.9380  436.60 
  9  10  38 1  115.5880  417.33    115.5880  417.33 
 11  10  38 1  115.5880  417.33    115.5880  417.33 
 10  11  12 1  115.4060  653.40    115.4060  653.40 
 11  12  13 1  123.7550  616.66    123.7550  616.66 
 11  12  22 1  126.1390  358.92    126.1390  358.92 
 13  12  22 1  121.6330  629.31    121.6330  629.31 
 12  13  14 1  119.0180  604.62    119.0180  604.62 
 12  13  39 1  110.2880  398.66    110.2880  398.66 
 14  13  39 1  110.2880  398.66    110.2880  398.66 
 13  14  15 1  121.6330  629.31    121.6330  629.31 
 13  14  19 1  121.6330  629.31    121.6330  629.31 
 15  14  19 1  119.9770  402.88    119.9770  402.88 
 14  15  16 1  119.9770  402.88    119.9770  402.88 
 14  15  40 1  120.5710  339.05    120.5710  339.05 
 16  15  40 1  120.5710  339.05    120.5710  339.05 
 15  16  17 1  119.9770  402.88    119.9770  402.88 
 15  16  41 1  120.5710  339.05    120.5710  339.05 
 17  16  41 1  120.5710  339.05    120.5710  339.05 
 16  17  18 1  119.9770  402.88    119.9770  402.88 
 16  17  42 1  120.5710  339.05    120.5710  339.05 
 18  17  42 1  120.5710  339.05    120.5710  339.05 
 17  18  19 1  119.9770  402.88    119.9770  402.88 
 17  18  20 1  119.6140  545.60    119.6140  545.60 
 19  18  20 1  119.6140  545.60    119.6140  545.60 
 14  19  18 1  119.9770  402.88    119.9770  402.88 
 14  19  43 1  120.5710  339.05    120.5710  339.05 
 18  19  43 1  120.5710  339.05    120.5710  339.05 
 18  20  21 1  180.0000  258.95    180.0000  258.95 
 20  21  44 1  180.0000  169.22    180.0000  169.22 
  8  22  12 1  119.9770  402.88    119.9770  402.88 
  8  22  23 1  119.9770  402.88    119.9770  402.88 
 12  22  23 1  119.9770  402.88    119.9770  402.88 
 22  23  24 1  119.9770  402.88    119.9770  402.88 
 22  23  45 1  120.5710  339.05    120.5710  339.05 
 24  23  45 1  120.5710  339.05    120.5710  339.05 
  6  24  23 1  119.9770  402.88    119.9770  402.88 
  6  24  25 1  116.4950  582.94    116.4950  582.94 
 23  24  25 1  116.4950  582.94    116.4950  582.94 
 24  25  26 1  102.8460  647.37    102.8460  647.37 
 25  26  27 1  108.1330  597.39    108.1330  597.39 
 25  26  46 1  108.5770  470.32    108.5770  470.32 
 25  26  47 1  108.5770  470.32    108.5770  470.32 
 27  26  46 1  110.5490  383.00    110.5490  383.00 
 27  26  47 1  110.5490  383.00    110.5490  383.00 
 46  26  47 1  108.8360  310.74    108.8360  310.74 
 26  27  28 1  108.1330  597.39    108.1330  597.39 
 26  27  48 1  110.5490  383.00    110.5490  383.00 
 26  27  49 1  110.5490  383.00    110.5490  383.00 
 28  27  48 1  108.5770  470.32    108.5770  470.32 
 28  27  49 1  108.5770  470.32    108.5770  470.32 
 48  27  49 1  108.8360  310.74    108.8360  310.74 
 27  28  29 1  106.9260  720.84    106.9260  720.84 
 28  29  50 1  108.5770  470.32    108.5770  470.32 
 28  29  51 1  108.5770  470.32    108.5770  470.32 
 28  29  52 1  108.5770  470.32    108.5770  470.32 
 50  29  51 1  108.8360  310.74    108.8360  310.74 
 50  29  52 1  108.8360  310.74    108.8360  310.74 
 51  29  52 1  108.8360  310.74    108.8360  310.74 


[ dihedrals ] 
; ai aj ak al fu phi0 kphi mult phi0 kphi mult
  1   2   3   4 9   0.00  -1.4267 1     0.00  -1.4267 1 
  1   2   3   4 9 180.00   1.5816 2   180.00   1.5816 2 
  1   2   3   4 9   0.00   1.5816 3     0.00   1.5816 3 
  1   2   3  33 9   0.00   1.1924 1     0.00   1.1924 1 
  1   2   3  33 9 180.00   0.6694 2   180.00   0.6694 2 
  1   2   3  33 9   0.00   1.1924 3     0.00   1.1924 3 
  1   2   3  34 9   0.00   1.1924 1     0.00   1.1924 1 
  1   2   3  34 9 180.00   0.6694 2   180.00   0.6694 2 
  1   2   3  34 9   0.00   1.1924 3     0.00   1.1924 3 
  2   3   4   5 9   0.00   0.8535 1     0.00   0.8535 1 
  2   3   4   5 9 180.00   2.9246 2   180.00   2.9246 2 
  2   3   4   5 9   0.00   2.0083 3     0.00   2.0083 3 
  2   3   4  35 9   0.00  -1.3682 1     0.00  -1.3682 1 
  2   3   4  35 9 180.00   2.2426 2   180.00   2.2426 2 
  2   3   4  35 9   0.00   0.5858 3     0.00   0.5858 3 
  2   3   4  36 9   0.00  -1.3682 1     0.00  -1.3682 1 
  2   3   4  36 9 180.00   2.2426 2   180.00   2.2426 2 
  2   3   4  36 9   0.00   0.5858 3     0.00   0.5858 3 
  3   2   1  30 9   0.00   1.1924 1     0.00   1.1924 1 
  3   2   1  30 9 180.00   0.6694 2   180.00   0.6694 2 
  3   2   1  30 9   0.00   1.1924 3     0.00   1.1924 3 
  3   2   1  31 9   0.00   1.1924 1     0.00   1.1924 1 
  3   2   1  31 9 180.00   0.6694 2   180.00   0.6694 2 
  3   2   1  31 9   0.00   1.1924 3     0.00   1.1924 3 
  3   2   1  32 9   0.00   1.1924 1     0.00   1.1924 1 
  3   2   1  32 9 180.00   0.6694 2   180.00   0.6694 2 
  3   2   1  32 9   0.00   1.1924 3     0.00   1.1924 3 
  3   4   5   6 9   0.00   0.4184 3     0.00   0.4184 3 
  4   5   6   7 9 180.00   9.1671 2   180.00   9.1671 2 
  4   5   6  24 9 180.00   9.1671 2   180.00   9.1671 2 
  5   4   3  33 9   0.00  -1.3682 1     0.00  -1.3682 1 
  5   4   3  33 9 180.00   2.2426 2   180.00   2.2426 2 
  5   4   3  33 9   0.00   0.5858 3     0.00   0.5858 3 
  5   4   3  34 9   0.00  -1.3682 1     0.00  -1.3682 1 
  5   4   3  34 9 180.00   2.2426 2   180.00   2.2426 2 
  5   4   3  34 9   0.00   0.5858 3     0.00   0.5858 3 
  5   6   7   8 9 180.00  14.6440 2   180.00  14.6440 2 
  5   6   7  37 9 180.00  14.6440 2   180.00  14.6440 2 
  5   6  24  23 9 180.00  14.6440 2   180.00  14.6440 2 
  5   6  24  25 9 180.00  14.6440 2   180.00  14.6440 2 
  6   5   4  35 9   0.00   0.2218 3     0.00   0.2218 3 
  6   5   4  36 9   0.00   0.2218 3     0.00   0.2218 3 
  6   7   8   9 9 180.00  14.6440 2   180.00  14.6440 2 
  6   7   8  22 9 180.00  14.6440 2   180.00  14.6440 2 
  6  24  23  22 9 180.00  14.6440 2   180.00  14.6440 2 
  6  24  23  45 9 180.00  14.6440 2   180.00  14.6440 2 
  6  24  25  26 9 180.00   9.1671 2   180.00   9.1671 2 
  7   6  24  23 9 180.00  14.6440 2   180.00  14.6440 2 
  7   6  24  25 9 180.00  14.6440 2   180.00  14.6440 2 
  7   8   9  10 9 180.00  14.6440 2   180.00  14.6440 2 
  7   8  22  12 9 180.00  14.6440 2   180.00  14.6440 2 
  7   8  22  23 9 180.00  14.6440 2   180.00  14.6440 2 
  8   7   6  24 9 180.00  14.6440 2   180.00  14.6440 2 
  8   9  10  11 9 180.00  14.6440 2   180.00  14.6440 2 
  8   9  10  38 9 180.00  14.6440 2   180.00  14.6440 2 
  8  22  12  11 9 180.00  14.6440 2   180.00  14.6440 2 
  8  22  12  13 9 180.00  14.6440 2   180.00  14.6440 2 
  8  22  23  24 9 180.00  14.6440 2   180.00  14.6440 2 
  8  22  23  45 9 180.00  14.6440 2   180.00  14.6440 2 
  9   8   7  37 9 180.00  14.6440 2   180.00  14.6440 2 
  9   8  22  12 9 180.00  14.6440 2   180.00  14.6440 2 
  9   8  22  23 9 180.00  14.6440 2   180.00  14.6440 2 
  9  10  11  12 9 180.00  14.6440 2   180.00  14.6440 2 
 10   9   8  22 9 180.00  14.6440 2   180.00  14.6440 2 
 10  11  12  13 9 180.00  14.6440 2   180.00  14.6440 2 
 10  11  12  22 9 180.00  14.6440 2   180.00  14.6440 2 
 11  12  13  14 9 180.00   8.3680 2   180.00   8.3680 2 
 11  12  13  39 9 180.00   8.3680 2   180.00   8.3680 2 
 11  12  22  23 9 180.00  14.6440 2   180.00  14.6440 2 
 12  11  10  38 9 180.00  14.6440 2   180.00  14.6440 2 
 12  13  14  15 9 180.00   8.3680 2   180.00   8.3680 2 
 12  13  14  19 9 180.00   8.3680 2   180.00   8.3680 2 
 12  22  23  24 9 180.00  14.6440 2   180.00  14.6440 2 
 12  22  23  45 9 180.00  14.6440 2   180.00  14.6440 2 
 13  12  22  23 9 180.00  14.6440 2   180.00  14.6440 2 
 13  14  15  16 9 180.00  14.6440 2   180.00  14.6440 2 
 13  14  15  40 9 180.00  14.6440 2   180.00  14.6440 2 
 13  14  19  18 9 180.00  14.6440 2   180.00  14.6440 2 
 13  14  19  43 9 180.00  14.6440 2   180.00  14.6440 2 
 14  13  12  22 9 180.00   8.3680 2   180.00   8.3680 2 
 14  15  16  17 9 180.00  14.6440 2   180.00  14.6440 2 
 14  15  16  41 9 180.00  14.6440 2   180.00  14.6440 2 
 14  19  18  17 9 180.00  14.6440 2   180.00  14.6440 2 
 14  19  18  20 9 180.00   4.1840 2   180.00   4.1840 2 
 15  14  13  39 9   0.00   1.4937 1     0.00   1.4937 1 
 15  14  13  39 9 180.00   5.4978 2   180.00   5.4978 2 
 15  14  13  39 9   0.00   7.0166 3     0.00   7.0166 3 
 15  14  19  18 9 180.00  14.6440 2   180.00  14.6440 2 
 15  14  19  43 9 180.00  14.6440 2   180.00  14.6440 2 
 15  16  17  18 9 180.00  14.6440 2   180.00  14.6440 2 
 15  16  17  42 9 180.00  14.6440 2   180.00  14.6440 2 
 16  15  14  19 9 180.00  14.6440 2   180.00  14.6440 2 
 16  17  18  19 9 180.00  14.6440 2   180.00  14.6440 2 
 16  17  18  20 9 180.00   4.1840 2   180.00   4.1840 2 
 17  16  15  40 9 180.00  14.6440 2   180.00  14.6440 2 
 17  18  19  43 9 180.00  14.6440 2   180.00  14.6440 2 
 18  17  16  41 9 180.00  14.6440 2   180.00  14.6440 2 
 19  14  13  39 9   0.00   1.4937 1     0.00   1.4937 1 
 19  14  13  39 9 180.00   5.4978 2   180.00   5.4978 2 
 19  14  13  39 9   0.00   7.0166 3     0.00   7.0166 3 
 19  14  15  40 9 180.00  14.6440 2   180.00  14.6440 2 
 19  18  17  42 9 180.00  14.6440 2   180.00  14.6440 2 
 20  18  17  42 9 180.00   4.1840 2   180.00   4.1840 2 
 20  18  19  43 9 180.00   4.1840 2   180.00   4.1840 2 
 22   8   7  37 9 180.00  14.6440 2   180.00  14.6440 2 
 22  12  13  39 9   0.00   1.4937 1     0.00   1.4937 1 
 22  12  13  39 9 180.00   5.4978 2   180.00   5.4978 2 
 22  12  13  39 9   0.00   7.0166 3     0.00   7.0166 3 
 22  23  24  25 9 180.00  14.6440 2   180.00  14.6440 2 
 23  24  25  26 9 180.00   9.1671 2   180.00   9.1671 2 
 24   6   7  37 9 180.00  14.6440 2   180.00  14.6440 2 
 24  25  26  27 9   0.00   0.4184 3     0.00   0.4184 3 
 24  25  26  46 9   0.00   0.2218 3     0.00   0.2218 3 
 24  25  26  47 9   0.00   0.2218 3     0.00   0.2218 3 
 25  24  23  45 9 180.00  14.6440 2   180.00  14.6440 2 
 25  26  27  28 9   0.00   0.8535 1     0.00   0.8535 1 
 25  26  27  28 9 180.00   2.9246 2   180.00   2.9246 2 
 25  26  27  28 9   0.00   2.0083 3     0.00   2.0083 3 
 25  26  27  48 9   0.00  -1.3682 1     0.00  -1.3682 1 
 25  26  27  48 9 180.00   2.2426 2   180.00   2.2426 2 
 25  26  27  48 9   0.00   0.5858 3     0.00   0.5858 3 
 25  26  27  49 9   0.00  -1.3682 1     0.00  -1.3682 1 
 25  26  27  49 9 180.00   2.2426 2   180.00   2.2426 2 
 25  26  27  49 9   0.00   0.5858 3     0.00   0.5858 3 
 26  27  28  29 9   0.00  -1.4267 1     0.00  -1.4267 1 
 26  27  28  29 9 180.00   1.5816 2   180.00   1.5816 2 
 26  27  28  29 9   0.00   1.5816 3     0.00   1.5816 3 
 27  28  29  50 9   0.00   1.1924 1     0.00   1.1924 1 
 27  28  29  50 9 180.00   0.6694 2   180.00   0.6694 2 
 27  28  29  50 9   0.00   1.1924 3     0.00   1.1924 3 
 27  28  29  51 9   0.00   1.1924 1     0.00   1.1924 1 
 27  28  29  51 9 180.00   0.6694 2   180.00   0.6694 2 
 27  28  29  51 9   0.00   1.1924 3     0.00   1.1924 3 
 27  28  29  52 9   0.00   1.1924 1     0.00   1.1924 1 
 27  28  29  52 9 180.00   0.6694 2   180.00   0.6694 2 
 27  28  29  52 9   0.00   1.1924 3     0.00   1.1924 3 
 28  27  26  46 9   0.00  -1.3682 1     0.00  -1.3682 1 
 28  27  26  46 9 180.00   2.2426 2   180.00   2.2426 2 
 28  27  26  46 9   0.00   0.5858 3     0.00   0.5858 3 
 28  27  26  47 9   0.00  -1.3682 1     0.00  -1.3682 1 
 28  27  26  47 9 180.00   2.2426 2   180.00   2.2426 2 
 28  27  26  47 9   0.00   0.5858 3     0.00   0.5858 3 
 29  28  27  48 9   0.00   1.1924 1     0.00   1.1924 1 
 29  28  27  48 9 180.00   0.6694 2   180.00   0.6694 2 
 29  28  27  48 9   0.00   1.1924 3     0.00   1.1924 3 
 29  28  27  49 9   0.00   1.1924 1     0.00   1.1924 1 
 29  28  27  49 9 180.00   0.6694 2   180.00   0.6694 2 
 29  28  27  49 9   0.00   1.1924 3     0.00   1.1924 3 
 33   3   4  35 9   0.00   0.5941 1     0.00   0.5941 1 
 33   3   4  35 9 180.00  -2.8995 2   180.00  -2.8995 2 
 33   3   4  35 9   0.00   0.6569 3     0.00   0.6569 3 
 33   3   4  36 9   0.00   0.5941 1     0.00   0.5941 1 
 33   3   4  36 9 180.00  -2.8995 2   180.00  -2.8995 2 
 33   3   4  36 9   0.00   0.6569 3     0.00   0.6569 3 
 34   3   4  35 9   0.00   0.5941 1     0.00   0.5941 1 
 34   3   4  35 9 180.00  -2.8995 2   180.00  -2.8995 2 
 34   3   4  35 9   0.00   0.6569 3     0.00   0.6569 3 
 34   3   4  36 9   0.00   0.5941 1     0.00   0.5941 1 
 34   3   4  36 9 180.00  -2.8995 2   180.00  -2.8995 2 
 34   3   4  36 9   0.00   0.6569 3     0.00   0.6569 3 
 40  15  16  41 9 180.00  14.6440 2   180.00  14.6440 2 
 41  16  17  42 9 180.00  14.6440 2   180.00  14.6440 2 
 46  26  27  48 9   0.00   0.5941 1     0.00   0.5941 1 
 46  26  27  48 9 180.00  -2.8995 2   180.00  -2.8995 2 
 46  26  27  48 9   0.00   0.6569 3     0.00   0.6569 3 
 46  26  27  49 9   0.00   0.5941 1     0.00   0.5941 1 
 46  26  27  49 9 180.00  -2.8995 2   180.00  -2.8995 2 
 46  26  27  49 9   0.00   0.6569 3     0.00   0.6569 3 
 47  26  27  48 9   0.00   0.5941 1     0.00   0.5941 1 
 47  26  27  48 9 180.00  -2.8995 2   180.00  -2.8995 2 
 47  26  27  48 9   0.00   0.6569 3     0.00   0.6569 3 
 47  26  27  49 9   0.00   0.5941 1     0.00   0.5941 1 
 47  26  27  49 9 180.00  -2.8995 2   180.00  -2.8995 2 
 47  26  27  49 9   0.00   0.6569 3     0.00   0.6569 3 


[ dihedrals ]
; ai aj ak al fu xi0 kxi xi0 kxi
  1  30   2  31 2   0.00   0.0000     0.00   0.0000
  1  30   2  32 2   0.00   0.0000     0.00   0.0000
  3   4   2  33 2   0.00   0.0000     0.00   0.0000
  3   4   2  34 2   0.00   0.0000     0.00   0.0000
  4   5   3  35 2   0.00   0.0000     0.00   0.0000
  4   5   3  36 2   0.00   0.0000     0.00   0.0000
  6  24   5   7 2   0.00  28.9031     0.00  28.9031
  7   8   6  37 2   0.00   9.0291     0.00   9.0291
  8  22   7   9 2   0.00  21.0790     0.00  21.0790
 10  11   9  38 2   0.00  50.5846     0.00  50.5846
 12  22  11  13 2   0.00  21.0790     0.00  21.0790
 13  14  12  39 2   0.00  -3.0125     0.00  -3.0125
 14  19  13  15 2   0.00  27.6981     0.00  27.6981
 15  16  14  40 2   0.00   9.0291     0.00   9.0291
 16  17  15  41 2   0.00   9.0291     0.00   9.0291
 17  18  16  42 2   0.00   9.0291     0.00   9.0291
 18  19  17  20 2   0.00  21.0790     0.00  21.0790
 22  12   8  23 2   0.00  21.0790     0.00  21.0790
 24  23   6  25 2   0.00  28.9031     0.00  28.9031
 26  27  25  46 2   0.00   0.0000     0.00   0.0000
 26  27  25  47 2   0.00   0.0000     0.00   0.0000
 27  28  26  48 2   0.00   0.0000     0.00   0.0000
 27  28  26  49 2   0.00   0.0000     0.00   0.0000
 19  18  14  43 2   0.00   9.0291     0.00   9.0291
 23  24  22  45 2   0.00   9.0291     0.00   9.0291
 29  50  28  51 2   0.00   0.0000     0.00   0.0000
 29  50  28  52 2   0.00   0.0000     0.00   0.0000


#ifdef POSRES_LIGAND 
[ position_restraints ] 
; atom  type      fx      fy      fz
   1 1 1000 1000 1000 
   2 1 1000 1000 1000 
   3 1 1000 1000 1000 
   4 1 1000 1000 1000 
   5 1 1000 1000 1000 
   6 1 1000 1000 1000 
   7 1 1000 1000 1000 
   8 1 1000 1000 1000 
   9 1 1000 1000 1000 
  10 1 1000 1000 1000 
  11 1 1000 1000 1000 
  12 1 1000 1000 1000 
  13 1 1000 1000 1000 
  14 1 1000 1000 1000 
  15 1 1000 1000 1000 
  16 1 1000 1000 1000 
  17 1 1000 1000 1000 
  18 1 1000 1000 1000 
  19 1 1000 1000 1000 
  20 1 1000 1000 1000 
  21 1 1000 1000 1000 
  22 1 1000 1000 1000 
  23 1 1000 1000 1000 
  24 1 1000 1000 1000 
  25 1 1000 1000 1000 
  26 1 1000 1000 1000 
  27 1 1000 1000 1000 
  28 1 1000 1000 1000 
  29 1 1000 1000 1000 
#endif 

