Grunge ROck MAChoS
   52
    1LIG     C1    1   0.182  -0.163  -0.307
    1LIG     O1    2   0.205  -0.103  -0.179
    1LIG     C2    3   0.311  -0.007  -0.187
    1LIG     C3    4   0.331   0.057  -0.051
    1LIG     O2    5   0.211   0.128  -0.014
    1LIG     C4    6   0.234   0.199   0.104
    1LIG     C5    7   0.287   0.328   0.092
    1LIG     C6    8   0.312   0.406   0.206
    1LIG     N1    9   0.365   0.530   0.189
    1LIG     C7   10   0.393   0.599   0.302
    1LIG     N2   11   0.376   0.556   0.429
    1LIG     C8   12   0.320   0.433   0.448
    1LIG     N3   13   0.310   0.379   0.578
    1LIG     C9   14   0.373   0.416   0.699
    1LIG    C10   15   0.401   0.313   0.790
    1LIG    C11   16   0.476   0.337   0.906
    1LIG    C12   17   0.524   0.465   0.932
    1LIG    C13   18   0.497   0.570   0.844
    1LIG    C14   19   0.424   0.545   0.727
    1LIG    C15   20   0.543   0.701   0.873
    1LIG    C16   21   0.582   0.812   0.900
    1LIG    C17   22   0.285   0.352   0.335
    1LIG    C18   23   0.227   0.223   0.345
    1LIG    C19   24   0.198   0.148   0.230
    1LIG     O3   25   0.146   0.020   0.245
    1LIG    C20   26   0.004   0.023   0.223
    1LIG    C21   27  -0.050  -0.120   0.215
    1LIG     O4   28   0.000  -0.183   0.097
    1LIG    C22   29  -0.051  -0.316   0.085
    1LIG     H1   30   0.271  -0.218  -0.339
    1LIG     H2   31   0.157  -0.086  -0.381
    1LIG     H3   32   0.098  -0.232  -0.298
    1LIG     H4   33   0.285   0.068  -0.262
    1LIG     H5   34   0.402  -0.059  -0.219
    1LIG     H6   35   0.416   0.126  -0.055
    1LIG     H7   36   0.352  -0.020   0.024
    1LIG     H8   37   0.309   0.368  -0.006
    1LIG     H9   38   0.435   0.698   0.290
    1LIG    H10   39   0.251   0.296   0.586
    1LIG    H11   40   0.367   0.212   0.770
    1LIG    H12   41   0.498   0.256   0.974
    1LIG    H13   42   0.583   0.482   1.022
    1LIG    H14   43   0.403   0.628   0.661
    1LIG    H15   44   0.617   0.909   0.925
    1LIG    H16   45   0.205   0.180   0.442
    1LIG    H17   46  -0.020   0.076   0.130
    1LIG    H18   47  -0.044   0.075   0.306
    1LIG    H19   48  -0.160  -0.119   0.210
    1LIG    H20   49  -0.020  -0.178   0.302
    1LIG    H21   50  -0.160  -0.313   0.075
    1LIG    H22   51  -0.023  -0.376   0.172
    1LIG    H23   52  -0.008  -0.361  -0.005
   0.00000   0.00000   0.00000
